   155.449997      -2.70994951E-05
   155.399994      -2.70460550E-05
   155.350006      -2.69903267E-05
   155.300003      -2.69324173E-05
   155.250000      -2.68724434E-05
   155.199997      -2.68105105E-05
   155.149994      -2.67467349E-05
   155.100006      -2.66812167E-05
   155.050003      -2.66140651E-05
   155.000000      -2.65453818E-05
   154.949997      -2.64752653E-05
   154.899994      -2.64038172E-05
   154.850006      -2.63311304E-05
   154.800003      -2.62572994E-05
   154.750000      -2.61824134E-05
   154.699997      -2.61065579E-05
   154.649994      -2.60298220E-05
   154.600006      -2.59522858E-05
   154.550003      -2.58740274E-05
   154.500000      -2.57951306E-05
   154.449997      -2.57156626E-05
   154.399994      -2.56356998E-05
   154.350006      -2.55553150E-05
   154.300003      -2.54745773E-05
   154.250000      -2.53935523E-05
   154.199997      -2.53123108E-05
   154.149994      -2.52309146E-05
   154.100006      -2.51494348E-05
   154.050003      -2.50679350E-05
   154.000000      -2.49864788E-05
   153.949997      -2.49051354E-05
   153.899994      -2.48239703E-05
   153.850006      -2.47430507E-05
   153.800003      -2.46624459E-05
   153.750000      -2.45822284E-05
   153.699997      -2.45024694E-05
   153.649994      -2.44232451E-05
   153.600006      -2.43446320E-05
   153.550003      -2.42667102E-05
   153.500000      -2.41895668E-05
   153.449997      -2.41132875E-05
   153.399994      -2.40379613E-05
   153.350006      -2.39636811E-05
   153.300003      -2.38905486E-05
   153.250000      -2.38186603E-05
   153.199997      -2.37481254E-05
   153.149994      -2.36790493E-05
   153.100006      -2.36115466E-05
   153.050003      -2.35457319E-05
   153.000000      -2.34817271E-05
   152.949997      -2.34196523E-05
   152.899994      -2.33596365E-05
   152.850006      -2.33018091E-05
   152.800003      -2.32463008E-05
   152.750000      -2.31932427E-05
   152.699997      -2.31427748E-05
   152.649994      -2.30950354E-05
   152.600006      -2.30501591E-05
   152.550003      -2.30082878E-05
   152.500000      -2.29695597E-05
   152.449997      -2.29341131E-05
   152.399994      -2.29020898E-05
   152.350006      -2.28736208E-05
   152.300003      -2.28488407E-05
   152.250000      -2.28278823E-05
   152.199997      -2.28108693E-05
   152.149994      -2.27979290E-05
   152.100006      -2.27891760E-05
   152.050003      -2.27847249E-05
   152.000000      -2.27846795E-05
   151.949997      -2.27891396E-05
   151.899994      -2.27981964E-05
   151.850006      -2.28119316E-05
   151.800003      -2.28304216E-05
   151.750000      -2.28537301E-05
   151.699997      -2.28819099E-05
   151.649994      -2.29150082E-05
   151.600006      -2.29530524E-05
   151.550003      -2.29960660E-05
   151.500000      -2.30440546E-05
   151.449997      -2.30970163E-05
   151.399994      -2.31549329E-05
   151.350006      -2.32177717E-05
   151.300003      -2.32854909E-05
   151.250000      -2.33580322E-05
   151.199997      -2.34353211E-05
   151.149994      -2.35172738E-05
   151.100006      -2.36037868E-05
   151.050003      -2.36947471E-05
   151.000000      -2.37900276E-05
   150.949997      -2.38894845E-05
   150.899994      -2.39929595E-05
   150.850006      -2.41002872E-05
   150.800003      -2.42112801E-05
   150.750000      -2.43257491E-05
   150.699997      -2.44434832E-05
   150.649994      -2.45642623E-05
   150.600006      -2.46878590E-05
   150.550003      -2.48140313E-05
   150.500000      -2.49425284E-05
   150.449997      -2.50730918E-05
   150.399994      -2.52054506E-05
   150.350006      -2.53393318E-05
   150.300003      -2.54744518E-05
   150.250000      -2.56105232E-05
   150.199997      -2.57472493E-05
   150.149994      -2.58843374E-05
   150.100006      -2.60214820E-05
   150.050003      -2.61583828E-05
   150.000000      -2.62947378E-05
   149.949997      -2.64302416E-05
   149.899994      -2.65645922E-05
   149.850006      -2.66974876E-05
   149.800003      -2.68286276E-05
   149.750000      -2.69577195E-05
   149.699997      -2.70844739E-05
   149.649994      -2.72086054E-05
   149.600006      -2.73298356E-05
   149.550003      -2.74478989E-05
   149.500000      -2.75625280E-05
   149.449997      -2.76734772E-05
   149.399994      -2.77804975E-05
   149.350006      -2.78833631E-05
   149.300003      -2.79818523E-05
   149.250000      -2.80757577E-05
   149.199997      -2.81648827E-05
   149.149994      -2.82490473E-05
   149.100006      -2.83280860E-05
   149.050003      -2.84018442E-05
   149.000000      -2.84701855E-05
   148.949997      -2.85329843E-05
   148.899994      -2.85901369E-05
   148.850006      -2.86415489E-05
   148.800003      -2.86871455E-05
   148.750000      -2.87268649E-05
   148.699997      -2.87606617E-05
   148.649994      -2.87885123E-05
   148.600006      -2.88104002E-05
   148.550003      -2.88263327E-05
   148.500000      -2.88363244E-05
   148.449997      -2.88404153E-05
   148.399994      -2.88386527E-05
   148.350006      -2.88311003E-05
   148.300003      -2.88178380E-05
   148.250000      -2.87989551E-05
   148.199997      -2.87745625E-05
   148.149994      -2.87447801E-05
   148.100006      -2.87097355E-05
   148.050003      -2.86695740E-05
   148.000000      -2.86244504E-05
   147.949997      -2.85745318E-05
   147.899994      -2.85199912E-05
   147.850006      -2.84610160E-05
   147.800003      -2.83977988E-05
   147.750000      -2.83305380E-05
   147.699997      -2.82594428E-05
   147.649994      -2.81847315E-05
   147.600006      -2.81066223E-05
   147.550003      -2.80253407E-05
   147.500000      -2.79411161E-05
   147.449997      -2.78541847E-05
   147.399994      -2.77647814E-05
   147.350006      -2.76731407E-05
   147.300003      -2.75795064E-05
   147.250000      -2.74841150E-05
   147.199997      -2.73872101E-05
   147.149994      -2.72890284E-05
   147.100006      -2.71898116E-05
   147.050003      -2.70897908E-05
   147.000000      -2.69892025E-05
   146.949997      -2.68882741E-05
   146.899994      -2.67872329E-05
   146.850006      -2.66863026E-05
   146.800003      -2.65856979E-05
   146.750000      -2.64856335E-05
   146.699997      -2.63863130E-05
   146.649994      -2.62879403E-05
   146.600006      -2.61907098E-05
   146.550003      -2.60948036E-05
   146.500000      -2.60004053E-05
   146.449997      -2.59076860E-05
   146.399994      -2.58168093E-05
   146.350006      -2.57279335E-05
   146.300003      -2.56412077E-05
   146.250000      -2.55567702E-05
   146.199997      -2.54747520E-05
   146.149994      -2.53952767E-05
   146.100006      -2.53184553E-05
   146.050003      -2.52443970E-05
   146.000000      -2.51731944E-05
   145.949997      -2.51049387E-05
   145.899994      -2.50397043E-05
   145.850006      -2.49775621E-05
   145.800003      -2.49185723E-05
   145.750000      -2.48627875E-05
   145.699997      -2.48102533E-05
   145.649994      -2.47610005E-05
   145.600006      -2.47150565E-05
   145.550003      -2.46724430E-05
   145.500000      -2.46331674E-05
   145.449997      -2.45972351E-05
   145.399994      -2.45646370E-05
   145.350006      -2.45353622E-05
   145.300003      -2.45093906E-05
   145.250000      -2.44866951E-05
   145.199997      -2.44672447E-05
   145.149994      -2.44509993E-05
   145.100006      -2.44379135E-05
   145.050003      -2.44279345E-05
   145.000000      -2.44210078E-05
   144.949997      -2.44170715E-05
   144.899994      -2.44160601E-05
   144.850006      -2.44179009E-05
   144.800003      -2.44225212E-05
   144.750000      -2.44298408E-05
   144.699997      -2.44397779E-05
   144.649994      -2.44522507E-05
   144.600006      -2.44671701E-05
   144.550003      -2.44844505E-05
   144.500000      -2.45039992E-05
   144.449997      -2.45257215E-05
   144.399994      -2.45495285E-05
   144.350006      -2.45753254E-05
   144.300003      -2.46030213E-05
   144.250000      -2.46325217E-05
   144.199997      -2.46637355E-05
   144.149994      -2.46965737E-05
   144.100006      -2.47309454E-05
   144.050003      -2.47667631E-05
   144.000000      -2.48039451E-05
   143.949997      -2.48424076E-05
   143.899994      -2.48820743E-05
   143.850006      -2.49228706E-05
   143.800003      -2.49647255E-05
   143.750000      -2.50075700E-05
   143.699997      -2.50513476E-05
   143.649994      -2.50959965E-05
   143.600006      -2.51414658E-05
   143.550003      -2.51877082E-05
   143.500000      -2.52346854E-05
   143.449997      -2.52823611E-05
   143.399994      -2.53307080E-05
   143.350006      -2.53797007E-05
   143.300003      -2.54293227E-05
   143.250000      -2.54795650E-05
   143.199997      -2.55304240E-05
   143.149994      -2.55819014E-05
   143.100006      -2.56340063E-05
   143.050003      -2.56867552E-05
   143.000000      -2.57401680E-05
   142.949997      -2.57942756E-05
   142.899994      -2.58491109E-05
   142.850006      -2.59047119E-05
   142.800003      -2.59611261E-05
   142.750000      -2.60184061E-05
   142.699997      -2.60766064E-05
   142.649994      -2.61357891E-05
   142.600006      -2.61960213E-05
   142.550003      -2.62573740E-05
   142.500000      -2.63199217E-05
   142.449997      -2.63837428E-05
   142.399994      -2.64489172E-05
   142.350006      -2.65155304E-05
   142.300003      -2.65836698E-05
   142.250000      -2.66534244E-05
   142.199997      -2.67248834E-05
   142.149994      -2.67981359E-05
   142.100006      -2.68732765E-05
   142.050003      -2.69503944E-05
   142.000000      -2.70295805E-05
   141.949997      -2.71109220E-05
   141.899994      -2.71945100E-05
   141.850006      -2.72804264E-05
   141.800003      -2.73687547E-05
   141.750000      -2.74595768E-05
   141.699997      -2.75529637E-05
   141.649994      -2.76489882E-05
   141.600006      -2.77477193E-05
   141.550003      -2.78492153E-05
   141.500000      -2.79535325E-05
   141.449997      -2.80607219E-05
   141.399994      -2.81708253E-05
   141.350006      -2.82838810E-05
   141.300003      -2.83999143E-05
   141.250000      -2.85189490E-05
   141.199997      -2.86409995E-05
   141.149994      -2.87660714E-05
   141.100006      -2.88941628E-05
   141.050003      -2.90252628E-05
   141.000000      -2.91593533E-05
   140.949997      -2.92964069E-05
   140.899994      -2.94363854E-05
   140.850006      -2.95792470E-05
   140.800003      -2.97249389E-05
   140.750000      -2.98733976E-05
   140.699997      -3.00245556E-05
   140.649994      -3.01783366E-05
   140.600006      -3.03346496E-05
   140.550003      -3.04934074E-05
   140.500000      -3.06545044E-05
   140.449997      -3.08178351E-05
   140.399994      -3.09832867E-05
   140.350006      -3.11507356E-05
   140.300003      -3.13200580E-05
   140.250000      -3.14911231E-05
   140.199997      -3.16637888E-05
   140.149994      -3.18379207E-05
   140.100006      -3.20133731E-05
   140.050003      -3.21899970E-05
   140.000000      -3.23676431E-05
   139.949997      -3.25461551E-05
   139.899994      -3.27253802E-05
   139.850006      -3.29051654E-05
   139.800003      -3.30853509E-05
   139.750000      -3.32657837E-05
   139.699997      -3.34463075E-05
   139.649994      -3.36267658E-05
   139.600006      -3.38070131E-05
   139.550003      -3.39868930E-05
   139.500000      -3.41662635E-05
   139.449997      -3.43449792E-05
   139.399994      -3.45228982E-05
   139.350006      -3.46998931E-05
   139.300003      -3.48758222E-05
   139.250000      -3.50505688E-05
   139.199997      -3.52240095E-05
   139.149994      -3.53960277E-05
   139.100006      -3.55665215E-05
   139.050003      -3.57353856E-05
   139.000000      -3.59025289E-05
   138.949997      -3.60678569E-05
   138.899994      -3.62312931E-05
   138.850006      -3.63927647E-05
   138.800003      -3.65522064E-05
   138.750000      -3.67095599E-05
   138.699997      -3.68647707E-05
   138.649994      -3.70177986E-05
   138.600006      -3.71686074E-05
   138.550003      -3.73171679E-05
   138.500000      -3.74634583E-05
   138.449997      -3.76074640E-05
   138.399994      -3.77491779E-05
   138.350006      -3.78886034E-05
   138.300003      -3.80257443E-05
   138.250000      -3.81606114E-05
   138.199997      -3.82932303E-05
   138.149994      -3.84236155E-05
   138.100006      -3.85518069E-05
   138.050003      -3.86778338E-05
   138.000000      -3.88017397E-05
   137.949997      -3.89235684E-05
   137.899994      -3.90433670E-05
   137.850006      -3.91611866E-05
   137.800003      -3.92770889E-05
   137.750000      -3.93911287E-05
   137.699997      -3.95033676E-05
   137.649994      -3.96138748E-05
   137.600006      -3.97227086E-05
   137.550003      -3.98299380E-05
   137.500000      -3.99356359E-05
   137.449997      -4.00398640E-05
   137.399994      -4.01426951E-05
   137.350006      -4.02442020E-05
   137.300003      -4.03444537E-05
   137.250000      -4.04435159E-05
   137.199997      -4.05414648E-05
   137.149994      -4.06383624E-05
   137.100006      -4.07342741E-05
   137.050003      -4.08292726E-05
   137.000000      -4.09234162E-05
   136.949997      -4.10167740E-05
   136.899994      -4.11094079E-05
   136.850006      -4.12013724E-05
   136.800003      -4.12927293E-05
   136.750000      -4.13835405E-05
   136.699997      -4.14738533E-05
   136.649994      -4.15637296E-05
   136.600006      -4.16532203E-05
   136.550003      -4.17423726E-05
   136.500000      -4.18312447E-05
   136.449997      -4.19198805E-05
   136.399994      -4.20083234E-05
   136.350006      -4.20966280E-05
   136.300003      -4.21848417E-05
   136.250000      -4.22730045E-05
   136.199997      -4.23611673E-05
   136.149994      -4.24493737E-05
   136.100006      -4.25376711E-05
   136.050003      -4.26261067E-05
   136.000000      -4.27147243E-05
   135.949997      -4.28035710E-05
   135.899994      -4.28926978E-05
   135.850006      -4.29821521E-05
   135.800003      -4.30719883E-05
   135.750000      -4.31622539E-05
   135.699997      -4.32530069E-05
   135.649994      -4.33443056E-05
   135.600006      -4.34362009E-05
   135.550003      -4.35287584E-05
   135.500000      -4.36220434E-05
   135.449997      -4.37161143E-05
   135.399994      -4.38110401E-05
   135.350006      -4.39068936E-05
   135.300003      -4.40037438E-05
   135.250000      -4.41016673E-05
   135.199997      -4.42007404E-05
   135.149994      -4.43010467E-05
   135.100006      -4.44026628E-05
   135.050003      -4.45056794E-05
   135.000000      -4.46101840E-05
   134.949997      -4.47162638E-05
   134.899994      -4.48240135E-05
   134.850006      -4.49335203E-05
   134.800003      -4.50448861E-05
   134.750000      -4.51582018E-05
   134.699997      -4.52735694E-05
   134.649994      -4.53910907E-05
   134.600006      -4.55108639E-05
   134.550003      -4.56329872E-05
   134.500000      -4.57575588E-05
   134.449997      -4.58846844E-05
   134.399994      -4.60144656E-05
   134.350006      -4.61469972E-05
   134.300003      -4.62823773E-05
   134.250000      -4.64207042E-05
   134.199997      -4.65620724E-05
   134.149994      -4.67065802E-05
   134.100006      -4.68543076E-05
   134.050003      -4.70053419E-05
   134.000000      -4.71597741E-05
   133.949997      -4.73176769E-05
   133.899994      -4.74791304E-05
   133.850006      -4.76441965E-05
   133.800003      -4.78129477E-05
   133.750000      -4.79854389E-05
   133.699997      -4.81617280E-05
   133.649994      -4.83418589E-05
   133.600006      -4.85258715E-05
   133.550003      -4.87138059E-05
   133.500000      -4.89056874E-05
   133.449997      -4.91015307E-05
   133.399994      -4.93013504E-05
   133.350006      -4.95051499E-05
   133.300003      -4.97129295E-05
   133.250000      -4.99246707E-05
   133.199997      -5.01403556E-05
   133.149994      -5.03599513E-05
   133.100006      -5.05834214E-05
   133.050003      -5.08107150E-05
   133.000000      -5.10417813E-05
   132.949997      -5.12765473E-05
   132.899994      -5.15149441E-05
   132.850006      -5.17568842E-05
   132.800003      -5.20022768E-05
   132.750000      -5.22510163E-05
   132.699997      -5.25029973E-05
   132.649994      -5.27580924E-05
   132.600006      -5.30161778E-05
   132.550003      -5.32771155E-05
   132.500000      -5.35407598E-05
   132.449997      -5.38069617E-05
   132.399994      -5.40755536E-05
   132.350006      -5.43463757E-05
   132.300003      -5.46192423E-05
   132.250000      -5.48939788E-05
   132.199997      -5.51703961E-05
   132.149994      -5.54482976E-05
   132.100006      -5.57274761E-05
   132.050003      -5.60077351E-05
   132.000000      -5.62888526E-05
   131.949997      -5.65706214E-05
   131.899994      -5.68528158E-05
   131.850006      -5.71352139E-05
   131.800003      -5.74175865E-05
   131.750000      -5.76997045E-05
   131.699997      -5.79813313E-05
   131.649994      -5.82622415E-05
   131.600006      -5.85421913E-05
   131.550003      -5.88209441E-05
   131.500000      -5.90982672E-05
   131.449997      -5.93739169E-05
   131.399994      -5.96476602E-05
   131.350006      -5.99192572E-05
   131.300003      -6.01884785E-05
   131.250000      -6.04550842E-05
   131.199997      -6.07188485E-05
   131.149994      -6.09795461E-05
   131.100006      -6.12369477E-05
   131.050003      -6.14908349E-05
   131.000000      -6.17409969E-05
   130.949997      -6.19872080E-05
   130.899994      -6.22292791E-05
   130.850006      -6.24669992E-05
   130.800003      -6.27001718E-05
   130.750000      -6.29286151E-05
   130.699997      -6.31521325E-05
   130.649994      -6.33705640E-05
   130.600006      -6.35837278E-05
   130.550003      -6.37914782E-05
   130.500000      -6.39936479E-05
   130.449997      -6.41900988E-05
   130.399994      -6.43806998E-05
   130.350006      -6.45653126E-05
   130.300003      -6.47438283E-05
   130.250000      -6.49161157E-05
   130.199997      -6.50820948E-05
   130.149994      -6.52416566E-05
   130.100006      -6.53947282E-05
   130.050003      -6.55412223E-05
   130.000000      -6.56810807E-05
   129.949997      -6.58142453E-05
   129.899994      -6.59406651E-05
   129.850006      -6.60603109E-05
   129.800003      -6.61731392E-05
   129.750000      -6.62791426E-05
   129.699997      -6.63782994E-05
   129.649994      -6.64706095E-05
   129.600006      -6.65560729E-05
   129.550003      -6.66347114E-05
   129.500000      -6.67065397E-05
   129.449997      -6.67715867E-05
   129.399994      -6.68298890E-05
   129.350006      -6.68814973E-05
   129.300003      -6.69264628E-05
   129.250000      -6.69648289E-05
   129.199997      -6.69966830E-05
   129.149994      -6.70220761E-05
   129.100006      -6.70410955E-05
   129.050003      -6.70538138E-05
   129.000000      -6.70603331E-05
   128.949997      -6.70607333E-05
   128.899994      -6.70551235E-05
   128.850006      -6.70435911E-05
   128.800003      -6.70262525E-05
   128.750000      -6.70032096E-05
   128.699997      -6.69745859E-05
   128.649994      -6.69404908E-05
   128.600006      -6.69010333E-05
   128.550003      -6.68563443E-05
   128.500000      -6.68065477E-05
   128.449997      -6.67517597E-05
   128.399994      -6.66921114E-05
   128.350006      -6.66277192E-05
   128.300003      -6.65587213E-05
   128.250000      -6.64852414E-05
   128.199997      -6.64074032E-05
   128.149994      -6.63253377E-05
   128.100006      -6.62391685E-05
   128.050003      -6.61490194E-05
   128.000000      -6.60550286E-05
   127.949997      -6.59573125E-05
   127.900002      -6.58559948E-05
   127.849998      -6.57511919E-05
   127.800003      -6.56430348E-05
   127.750000      -6.55316326E-05
   127.699997      -6.54171163E-05
   127.650002      -6.52995950E-05
   127.599998      -6.51791779E-05
   127.550003      -6.50559814E-05
   127.500000      -6.49301146E-05
   127.449997      -6.48016867E-05
   127.400002      -6.46708068E-05
   127.349998      -6.45375694E-05
   127.300003      -6.44020765E-05
   127.250000      -6.42644445E-05
   127.199997      -6.41247461E-05
   127.150002      -6.39830978E-05
   127.099998      -6.38395795E-05
   127.050003      -6.36942932E-05
   127.000000      -6.35473116E-05
   126.949997      -6.33987293E-05
   126.900002      -6.32486335E-05
   126.849998      -6.30971044E-05
   126.800003      -6.29442220E-05
   126.750000      -6.27900590E-05
   126.699997      -6.26347100E-05
   126.650002      -6.24782333E-05
   126.599998      -6.23207015E-05
   126.550003      -6.21621948E-05
   126.500000      -6.20027786E-05
   126.449997      -6.18425183E-05
   126.400002      -6.16814796E-05
   126.349998      -6.15197205E-05
   126.300003      -6.13573138E-05
   126.250000      -6.11943105E-05
   126.199997      -6.10307652E-05
   126.150002      -6.08667469E-05
   126.099998      -6.07022957E-05
   126.050003      -6.05374662E-05
   126.000000      -6.03723129E-05
   125.949997      -6.02068758E-05
   125.900002      -6.00412095E-05
   125.849998      -5.98753541E-05
   125.800003      -5.97093458E-05
   125.750000      -5.95432284E-05
   125.699997      -5.93770383E-05
   125.650002      -5.92108081E-05
   125.599998      -5.90445743E-05
   125.550003      -5.88783587E-05
   125.500000      -5.87121976E-05
   125.449997      -5.85461130E-05
   125.400002      -5.83801266E-05
   125.349998      -5.82142602E-05
   125.300003      -5.80485321E-05
   125.250000      -5.78829604E-05
   125.199997      -5.77175488E-05
   125.150002      -5.75523190E-05
   125.099998      -5.73872785E-05
   125.050003      -5.72224271E-05
   125.000000      -5.70577722E-05
   124.949997      -5.68933174E-05
   124.900002      -5.67290554E-05
   124.849998      -5.65649862E-05
   124.800003      -5.64011025E-05
   124.750000      -5.62374007E-05
   124.699997      -5.60738699E-05
   124.650002      -5.59104956E-05
   124.599998      -5.57472631E-05
   124.550003      -5.55841616E-05
   124.500000      -5.54211729E-05
   124.449997      -5.52582751E-05
   124.400002      -5.50954464E-05
   124.349998      -5.49326724E-05
   124.300003      -5.47699201E-05
   124.250000      -5.46071715E-05
   124.199997      -5.44444047E-05
   124.150002      -5.42815833E-05
   124.099998      -5.41186855E-05
   124.050003      -5.39556859E-05
   124.000000      -5.37925553E-05
   123.949997      -5.36292646E-05
   123.900002      -5.34657884E-05
   123.849998      -5.33020902E-05
   123.800003      -5.31381484E-05
   123.750000      -5.29739336E-05
   123.699997      -5.28094170E-05
   123.650002      -5.26445729E-05
   123.599998      -5.24793722E-05
   123.550003      -5.23137933E-05
   123.500000      -5.21478069E-05
   123.449997      -5.19813912E-05
   123.400002      -5.18145207E-05
   123.349998      -5.16471737E-05
   123.300003      -5.14793246E-05
   123.250000      -5.13109626E-05
   123.199997      -5.11420621E-05
   123.150002      -5.09726087E-05
   123.099998      -5.08025878E-05
   123.050003      -5.06319848E-05
   123.000000      -5.04607815E-05
   122.949997      -5.02889743E-05
   122.900002      -5.01165450E-05
   122.849998      -4.99434864E-05
   122.800003      -4.97697947E-05
   122.750000      -4.95954591E-05
   122.699997      -4.94204760E-05
   122.650002      -4.92448380E-05
   122.599998      -4.90685452E-05
   122.550003      -4.88915903E-05
   122.500000      -4.87139769E-05
   122.449997      -4.85357014E-05
   122.400002      -4.83567601E-05
   122.349998      -4.81771604E-05
   122.300003      -4.79968985E-05
   122.250000      -4.78159709E-05
   122.199997      -4.76343848E-05
   122.150002      -4.74521366E-05
   122.099998      -4.72692300E-05
   122.050003      -4.70856576E-05
   122.000000      -4.69014267E-05
   121.949997      -4.67165337E-05
   121.900002      -4.65309786E-05
   121.849998      -4.63447541E-05
   121.800003      -4.61578566E-05
   121.750000      -4.59702860E-05
   121.699997      -4.57820352E-05
   121.650002      -4.55930931E-05
   121.599998      -4.54034562E-05
   121.550003      -4.52131098E-05
   121.500000      -4.50220432E-05
   121.449997      -4.48302453E-05
   121.400002      -4.46376980E-05
   121.349998      -4.44443867E-05
   121.300003      -4.42502896E-05
   121.250000      -4.40553849E-05
   121.199997      -4.38596471E-05
   121.150002      -4.36630580E-05
   121.099998      -4.34655813E-05
   121.050003      -4.32671950E-05
   121.000000      -4.30678629E-05
   120.949997      -4.28675521E-05
   120.900002      -4.26662300E-05
   120.849998      -4.24638565E-05
   120.800003      -4.22603880E-05
   120.750000      -4.20557881E-05
   120.699997      -4.18500094E-05
   120.650002      -4.16430121E-05
   120.599998      -4.14347414E-05
   120.550003      -4.12251502E-05
   120.500000      -4.10141911E-05
   120.449997      -4.08018132E-05
   120.400002      -4.05879582E-05
   120.349998      -4.03725790E-05
   120.300003      -4.01556135E-05
   120.250000      -3.99370110E-05
   120.199997      -3.97167132E-05
   120.150002      -3.94946583E-05
   120.099998      -3.92707952E-05
   120.050003      -3.90450623E-05
   120.000000      -3.88174049E-05
   119.949997      -3.85877574E-05
   119.900002      -3.83560691E-05
   119.849998      -3.81222817E-05
   119.800003      -3.78863333E-05
   119.750000      -3.76481767E-05
   119.699997      -3.74077463E-05
   119.650002      -3.71649985E-05
   119.599998      -3.69198715E-05
   119.550003      -3.66723179E-05
   119.500000      -3.64222869E-05
   119.449997      -3.61697275E-05
   119.400002      -3.59145997E-05
   119.349998      -3.56568526E-05
   119.300003      -3.53964424E-05
   119.250000      -3.51333329E-05
   119.199997      -3.48674876E-05
   119.150002      -3.45988665E-05
   119.099998      -3.43274405E-05
   119.050003      -3.40531769E-05
   119.000000      -3.37760539E-05
   118.949997      -3.34960459E-05
   118.900002      -3.32131312E-05
   118.849998      -3.29272953E-05
   118.800003      -3.26385234E-05
   118.750000      -3.23468084E-05
   118.699997      -3.20521467E-05
   118.650002      -3.17545346E-05
   118.599998      -3.14539757E-05
   118.550003      -3.11504737E-05
   118.500000      -3.08440431E-05
   118.449997      -3.05346948E-05
   118.400002      -3.02224526E-05
   118.349998      -2.99073363E-05
   118.300003      -2.95893806E-05
   118.250000      -2.92686145E-05
   118.199997      -2.89450763E-05
   118.150002      -2.86188078E-05
   118.099998      -2.82898600E-05
   118.050003      -2.79582800E-05
   118.000000      -2.76241281E-05
   117.949997      -2.72874640E-05
   117.900002      -2.69483553E-05
   117.849998      -2.66068728E-05
   117.800003      -2.62630947E-05
   117.750000      -2.59170956E-05
   117.699997      -2.55689665E-05
   117.650002      -2.52187947E-05
   117.599998      -2.48666747E-05
   117.550003      -2.45127048E-05
   117.500000      -2.41569887E-05
   117.449997      -2.37996373E-05
   117.400002      -2.34407598E-05
   117.349998      -2.30804744E-05
   117.300003      -2.27188957E-05
   117.250000      -2.23561565E-05
   117.199997      -2.19923750E-05
   117.150002      -2.16276876E-05
   117.099998      -2.12622290E-05
   117.050003      -2.08961355E-05
   117.000000      -2.05295437E-05
   116.949997      -2.01626026E-05
   116.900002      -1.97954541E-05
   116.849998      -1.94282457E-05
   116.800003      -1.90611281E-05
   116.750000      -1.86942525E-05
   116.699997      -1.83277698E-05
   116.650002      -1.79618364E-05
   116.599998      -1.75966034E-05
   116.550003      -1.72322289E-05
   116.500000      -1.68688657E-05
   116.449997      -1.65066722E-05
   116.400002      -1.61458011E-05
   116.349998      -1.57864069E-05
   116.300003      -1.54286445E-05
   116.250000      -1.50726664E-05
   116.199997      -1.47186256E-05
   116.150002      -1.43666666E-05
   116.099998      -1.40169404E-05
   116.050003      -1.36695908E-05
   116.000000      -1.33247613E-05
   115.949997      -1.29825930E-05
   115.900002      -1.26432169E-05
   115.849998      -1.23067721E-05
   115.800003      -1.19733850E-05
   115.750000      -1.16431856E-05
   115.699997      -1.13162941E-05
   115.650002      -1.09928269E-05
   115.599998      -1.06729003E-05
   115.550003      -1.03566208E-05
   115.500000      -1.00440975E-05
   115.449997      -9.73542683E-06
   115.400002      -9.43070791E-06
   115.349998      -9.13003259E-06
   115.300003      -8.83348548E-06
   115.250000      -8.54114660E-06
   115.199997      -8.25309144E-06
   115.150002      -7.96939366E-06
   115.099998      -7.69011876E-06
   115.050003      -7.41532949E-06
   115.000000      -7.14508133E-06
   114.949997      -6.87942656E-06
   114.900002      -6.61841204E-06
   114.849998      -6.36208188E-06
   114.800003      -6.11047335E-06
   114.750000      -5.86361921E-06
   114.699997      -5.62155219E-06
   114.650002      -5.38429776E-06
   114.599998      -5.15187594E-06
   114.550003      -4.92430627E-06
   114.500000      -4.70160057E-06
   114.449997      -4.48377159E-06
   114.400002      -4.27082750E-06
   114.349998      -4.06277195E-06
   114.300003      -3.85960993E-06
   114.250000      -3.66133895E-06
   114.199997      -3.46795423E-06
   114.150002      -3.27945327E-06
   114.099998      -3.09582811E-06
   114.050003      -2.91706942E-06
   114.000000      -2.74316585E-06
   113.949997      -2.57410534E-06
   113.900002      -2.40987674E-06
   113.849998      -2.25046165E-06
   113.800003      -2.09584641E-06
   113.750000      -1.94601535E-06
   113.699997      -1.80094742E-06
   113.650002      -1.66062750E-06
   113.599998      -1.52503719E-06
   113.550003      -1.39415658E-06
   113.500000      -1.26796760E-06
   113.449997      -1.14644718E-06
   113.400002      -1.02957597E-06
   113.349998      -9.17336195E-07
   113.300003      -8.09705739E-07
   113.250000      -7.06664252E-07
   113.199997      -6.08190533E-07
   113.150002      -5.14264741E-07
   113.099998      -4.24865249E-07
   113.050003      -3.39970427E-07
   113.000000      -2.59556685E-07
   112.949997      -1.83603547E-07
   112.900002      -1.12089182E-07
   112.849998      -4.49887914E-08
   112.800003       1.77208292E-08
   112.750000       7.60636070E-08
   112.699997       1.30063910E-07
   112.650002       1.79747971E-07