   155.449997      -1.03391649E-05
   155.399994      -1.03598259E-05
   155.350006      -1.03826214E-05
   155.300003      -1.04074525E-05
   155.250000      -1.04342189E-05
   155.199997      -1.04628134E-05
   155.149994      -1.04931232E-05
   155.100006      -1.05250301E-05
   155.050003      -1.05584122E-05
   155.000000      -1.05931404E-05
   154.949997      -1.06290818E-05
   154.899994      -1.06661000E-05
   154.850006      -1.07040523E-05
   154.800003      -1.07427950E-05
   154.750000      -1.07821761E-05
   154.699997      -1.08220393E-05
   154.649994      -1.08622307E-05
   154.600006      -1.09025887E-05
   154.550003      -1.09429493E-05
   154.500000      -1.09831490E-05
   154.449997      -1.10230148E-05
   154.399994      -1.10623787E-05
   154.350006      -1.11010668E-05
   154.300003      -1.11389072E-05
   154.250000      -1.11757236E-05
   154.199997      -1.12113430E-05
   154.149994      -1.12455873E-05
   154.100006      -1.12782845E-05
   154.050003      -1.13092610E-05
   154.000000      -1.13383439E-05
   153.949997      -1.13653614E-05
   153.899994      -1.13901478E-05
   153.850006      -1.14125351E-05
   153.800003      -1.14323630E-05
   153.750000      -1.14494742E-05
   153.699997      -1.14637132E-05
   153.649994      -1.14749328E-05
   153.600006      -1.14829872E-05
   153.550003      -1.14877412E-05
   153.500000      -1.14890627E-05
   153.449997      -1.14868299E-05
   153.399994      -1.14809236E-05
   153.350006      -1.14712366E-05
   153.300003      -1.14576687E-05
   153.250000      -1.14401273E-05
   153.199997      -1.14185304E-05
   153.149994      -1.13928054E-05
   153.100006      -1.13628894E-05
   153.050003      -1.13287288E-05
   153.000000      -1.12902835E-05
   152.949997      -1.12475191E-05
   152.899994      -1.12004182E-05
   152.850006      -1.11489708E-05
   152.800003      -1.10931787E-05
   152.750000      -1.10330557E-05
   152.699997      -1.09686262E-05
   152.649994      -1.08999284E-05
   152.600006      -1.08270106E-05
   152.550003      -1.07499318E-05
   152.500000      -1.06687621E-05
   152.449997      -1.05835861E-05
   152.399994      -1.04944966E-05
   152.350006      -1.04015953E-05
   152.300003      -1.03049979E-05
   152.250000      -1.02048289E-05
   152.199997      -1.01012201E-05
   152.149994      -9.99431631E-06
   152.100006      -9.88427018E-06
   152.050003      -9.77124091E-06
   152.000000      -9.65539584E-06
   151.949997      -9.53690960E-06
   151.899994      -9.41596591E-06
   151.850006      -9.29274938E-06
   151.800003      -9.16745648E-06
   151.750000      -9.04028184E-06
   151.699997      -8.91142827E-06
   151.649994      -8.78110131E-06
   151.600006      -8.64950562E-06
   151.550003      -8.51685036E-06
   151.500000      -8.38334381E-06
   151.449997      -8.24919971E-06
   151.399994      -8.11462360E-06
   151.350006      -7.97982557E-06
   151.300003      -7.84500935E-06
   151.250000      -7.71038049E-06
   151.199997      -7.57613725E-06
   151.149994      -7.44247700E-06
   151.100006      -7.30958800E-06
   151.050003      -7.17765488E-06
   151.000000      -7.04685681E-06
   150.949997      -6.91736841E-06
   150.899994      -6.78935021E-06
   150.850006      -6.66296182E-06
   150.800003      -6.53835059E-06
   150.750000      -6.41565612E-06
   150.699997      -6.29500983E-06
   150.649994      -6.17653268E-06
   150.600006      -6.06033336E-06
   150.550003      -5.94651192E-06
   150.500000      -5.83515975E-06
   150.449997      -5.72635463E-06
   150.399994      -5.62016521E-06
   150.350006      -5.51664743E-06
   150.300003      -5.41584677E-06
   150.250000      -5.31780097E-06
   150.199997      -5.22252958E-06
   150.149994      -5.13004807E-06
   150.100006      -5.04035688E-06
   150.050003      -4.95344784E-06
   150.000000      -4.86930139E-06
   149.949997      -4.78788843E-06
   149.899994      -4.70916757E-06
   149.850006      -4.63309061E-06
   149.800003      -4.55960026E-06
   149.750000      -4.48862602E-06
   149.699997      -4.42009468E-06
   149.649994      -4.35392167E-06
   149.600006      -4.29001511E-06
   149.550003      -4.22827679E-06
   149.500000      -4.16859984E-06
   149.449997      -4.11087649E-06
   149.399994      -4.05498758E-06
   149.350006      -4.00081217E-06
   149.300003      -3.94822609E-06
   149.250000      -3.89709703E-06
   149.199997      -3.84729310E-06
   149.149994      -3.79868015E-06
   149.100006      -3.75111767E-06
   149.050003      -3.70446696E-06
   149.000000      -3.65858818E-06
   148.949997      -3.61333628E-06
   148.899994      -3.56857254E-06
   148.850006      -3.52415304E-06
   148.800003      -3.47993750E-06
   148.750000      -3.43578495E-06
   148.699997      -3.39155667E-06
   148.649994      -3.34711649E-06
   148.600006      -3.30233024E-06
   148.550003      -3.25706537E-06
   148.500000      -3.21119319E-06
   148.449997      -3.16458909E-06
   148.399994      -3.11712915E-06
   148.350006      -3.06869424E-06
   148.300003      -3.01917021E-06
   148.250000      -2.96844632E-06
   148.199997      -2.91641823E-06
   148.149994      -2.86298223E-06
   148.100006      -2.80804147E-06
   148.050003      -2.75150296E-06
   148.000000      -2.69327984E-06
   147.949997      -2.63328980E-06
   147.899994      -2.57145598E-06
   147.850006      -2.50770586E-06
   147.800003      -2.44197099E-06
   147.750000      -2.37418681E-06
   147.699997      -2.30429691E-06
   147.649994      -2.23224833E-06
   147.600006      -2.15799287E-06
   147.550003      -2.08148822E-06
   147.500000      -2.00269642E-06
   147.449997      -1.92158336E-06
   147.399994      -1.83811858E-06
   147.350006      -1.75227729E-06
   147.300003      -1.66403868E-06
   147.250000      -1.57338764E-06
   147.199997      -1.48031143E-06
   147.149994      -1.38480220E-06
   147.100006      -1.28685406E-06
   147.050003      -1.18646722E-06
   147.000000      -1.08364372E-06
   146.949997      -9.78389153E-07
   146.899994      -8.70713450E-07
   146.850006      -7.60628041E-07
   146.800003      -6.48147818E-07
   146.750000      -5.33292280E-07
   146.699997      -4.16082969E-07
   146.649994      -2.96542140E-07
   146.600006      -1.74697107E-07
   146.550003      -5.05747160E-08
   146.500000       7.57927978E-08
   146.449997       2.04373322E-07
   146.399994       3.35131404E-07
   146.350006       4.68028333E-07
   146.300003       6.03025171E-07
   146.250000       7.40079372E-07
   146.199997       8.79147535E-07
   146.149994       1.02018691E-06
   146.100006       1.16314880E-06
   146.050003       1.30798276E-06
   146.000000       1.45464082E-06
   145.949997       1.60307047E-06
   145.899994       1.75321702E-06
   145.850006       1.90502715E-06
   145.800003       2.05844321E-06
   145.750000       2.21340838E-06
   145.699997       2.36986307E-06
   145.649994       2.52774885E-06
   145.600006       2.68700433E-06
   145.550003       2.84756675E-06
   145.500000       3.00937495E-06
   145.449997       3.17236527E-06
   145.399994       3.33647722E-06
   145.350006       3.50164396E-06
   145.300003       3.66780273E-06
   145.250000       3.83489078E-06
   145.199997       4.00284171E-06
   145.149994       4.17159345E-06
   145.100006       4.34108188E-06
   145.050003       4.51124424E-06
   145.000000       4.68201961E-06
   144.949997       4.85334613E-06
   144.899994       5.02516377E-06
   144.850006       5.19741252E-06
   144.800003       5.37003643E-06
   144.750000       5.54297822E-06
   144.699997       5.71618330E-06
   144.649994       5.88959983E-06
   144.600006       6.06317599E-06
   144.550003       6.23686174E-06
   144.500000       6.41061024E-06
   144.449997       6.58437739E-06
   144.399994       6.75811998E-06
   144.350006       6.93179572E-06
   144.300003       7.10536779E-06
   144.250000       7.27879842E-06
   144.199997       7.45205489E-06
   144.149994       7.62510535E-06
   144.100006       7.79792026E-06
   144.050003       7.97047142E-06
   144.000000       8.14273335E-06
   143.949997       8.31468333E-06
   143.899994       8.48629952E-06
   143.850006       8.65756465E-06
   143.800003       8.82845961E-06
   143.750000       8.99896986E-06
   143.699997       9.16908084E-06
   143.649994       9.33878164E-06
   143.600006       9.50805861E-06
   143.550003       9.67690357E-06
   143.500000       9.84530743E-06
   143.449997       1.00132638E-05
   143.399994       1.01807645E-05
   143.350006       1.03478014E-05
   143.300003       1.05143690E-05
   143.250000       1.06804619E-05
   143.199997       1.08460727E-05
   143.149994       1.10111969E-05
   143.100006       1.11758254E-05
   143.050003       1.13399519E-05
   143.000000       1.15035673E-05
   142.949997       1.16666633E-05
   142.899994       1.18292273E-05
   142.850006       1.19912474E-05
   142.800003       1.21527119E-05
   142.750000       1.23136051E-05
   142.699997       1.24739090E-05
   142.649994       1.26336072E-05
   142.600006       1.27926751E-05
   142.550003       1.29510918E-05
   142.500000       1.31088291E-05
   142.449997       1.32658606E-05
   142.399994       1.34221564E-05
   142.350006       1.35776845E-05
   142.300003       1.37324087E-05
   142.250000       1.38862915E-05
   142.199997       1.40392922E-05
   142.149994       1.41913697E-05
   142.100006       1.43424786E-05
   142.050003       1.44925734E-05
   142.000000       1.46416032E-05
   141.949997       1.47895198E-05
   141.899994       1.49362677E-05
   141.850006       1.50817959E-05
   141.800003       1.52260454E-05
   141.750000       1.53689634E-05
   141.699997       1.55104917E-05
   141.649994       1.56505703E-05
   141.600006       1.57891427E-05
   141.550003       1.59261490E-05
   141.500000       1.60615309E-05
   141.449997       1.61952303E-05
   141.399994       1.63271889E-05
   141.350006       1.64573539E-05
   141.300003       1.65856654E-05
   141.250000       1.67120706E-05
   141.199997       1.68365223E-05
   141.149994       1.69589694E-05
   141.100006       1.70793628E-05
   141.050003       1.71976626E-05
   141.000000       1.73138251E-05
   140.949997       1.74278139E-05
   140.899994       1.75395944E-05
   140.850006       1.76491376E-05
   140.800003       1.77564179E-05
   140.750000       1.78614118E-05
   140.699997       1.79640992E-05
   140.649994       1.80644729E-05
   140.600006       1.81625219E-05
   140.550003       1.82582426E-05
   140.500000       1.83516313E-05
   140.449997       1.84427008E-05
   140.399994       1.85314584E-05
   140.350006       1.86179186E-05
   140.300003       1.87021051E-05
   140.250000       1.87840415E-05
   140.199997       1.88637568E-05
   140.149994       1.89412858E-05
   140.100006       1.90166702E-05
   140.050003       1.90899536E-05
   140.000000       1.91611816E-05
   139.949997       1.92304087E-05
   139.899994       1.92976931E-05
   139.850006       1.93630895E-05
   139.800003       1.94266649E-05
   139.750000       1.94884888E-05
   139.699997       1.95486264E-05
   139.649994       1.96071560E-05
   139.600006       1.96641504E-05
   139.550003       1.97196896E-05
   139.500000       1.97738500E-05
   139.449997       1.98267153E-05
   139.399994       1.98783673E-05
   139.350006       1.99288952E-05
   139.300003       1.99783772E-05
   139.250000       2.00269042E-05
   139.199997       2.00745544E-05
   139.149994       2.01214225E-05
   139.100006       2.01675866E-05
   139.050003       2.02131341E-05
   139.000000       2.02581468E-05
   138.949997       2.03027066E-05
   138.899994       2.03468935E-05
   138.850006       2.03907857E-05
   138.800003       2.04344597E-05
   138.750000       2.04779899E-05
   138.699997       2.05214455E-05
   138.649994       2.05648976E-05
   138.600006       2.06084114E-05
   138.550003       2.06520435E-05
   138.500000       2.06958593E-05
   138.449997       2.07399135E-05
   138.399994       2.07842550E-05
   138.350006       2.08289330E-05
   138.300003       2.08739912E-05
   138.250000       2.09194714E-05
   138.199997       2.09654081E-05
   138.149994       2.10118342E-05
   138.100006       2.10587805E-05
   138.050003       2.11062652E-05
   138.000000       2.11543138E-05
   137.949997       2.12029390E-05
   137.899994       2.12521554E-05
   137.850006       2.13019666E-05
   137.800003       2.13523817E-05
   137.750000       2.14033971E-05
   137.699997       2.14550091E-05
   137.649994       2.15072123E-05
   137.600006       2.15599975E-05
   137.550003       2.16133485E-05
   137.500000       2.16672488E-05
   137.449997       2.17216766E-05
   137.399994       2.17766083E-05
   137.350006       2.18320201E-05
   137.300003       2.18878795E-05
   137.250000       2.19441554E-05
   137.199997       2.20008151E-05
   137.149994       2.20578168E-05
   137.100006       2.21151240E-05
   137.050003       2.21726987E-05
   137.000000       2.22304916E-05
   136.949997       2.22884591E-05
   136.899994       2.23465559E-05
   136.850006       2.24047326E-05
   136.800003       2.24629366E-05
   136.750000       2.25211152E-05
   136.699997       2.25792210E-05
   136.649994       2.26371958E-05
   136.600006       2.26949833E-05
   136.550003       2.27525288E-05
   136.500000       2.28097761E-05
   136.449997       2.28666631E-05
   136.399994       2.29231318E-05
   136.350006       2.29791240E-05
   136.300003       2.30345813E-05
   136.250000       2.30894439E-05
   136.199997       2.31436443E-05
   136.149994       2.31971280E-05
   136.100006       2.32498314E-05
   136.050003       2.33016926E-05
   136.000000       2.33526534E-05
   135.949997       2.34026484E-05
   135.899994       2.34516174E-05
   135.850006       2.34994986E-05
   135.800003       2.35462321E-05
   135.750000       2.35917596E-05
   135.699997       2.36360174E-05
   135.649994       2.36789492E-05
   135.600006       2.37204986E-05
   135.550003       2.37606055E-05
   135.500000       2.37992135E-05
   135.449997       2.38362663E-05
   135.399994       2.38717075E-05
   135.350006       2.39054880E-05
   135.300003       2.39375495E-05
   135.250000       2.39678466E-05
   135.199997       2.39963247E-05
   135.149994       2.40229401E-05
   135.100006       2.40476456E-05
   135.050003       2.40703976E-05
   135.000000       2.40911522E-05
   134.949997       2.41098678E-05
   134.899994       2.41265097E-05
   134.850006       2.41410435E-05
   134.800003       2.41534290E-05
   134.750000       2.41636426E-05
   134.699997       2.41716516E-05
   134.649994       2.41774324E-05
   134.600006       2.41809630E-05
   134.550003       2.41822218E-05
   134.500000       2.41811904E-05
   134.449997       2.41778580E-05
   134.399994       2.41722137E-05
   134.350006       2.41642520E-05
   134.300003       2.41539656E-05
   134.250000       2.41413582E-05
   134.199997       2.41264315E-05
   134.149994       2.41091948E-05
   134.100006       2.40896570E-05
   134.050003       2.40678328E-05
   134.000000       2.40437421E-05
   133.949997       2.40174049E-05
   133.899994       2.39888450E-05
   133.850006       2.39580913E-05
   133.800003       2.39251767E-05
   133.750000       2.38901339E-05
   133.699997       2.38530065E-05
   133.649994       2.38138364E-05
   133.600006       2.37726636E-05
   133.550003       2.37295390E-05
   133.500000       2.36845153E-05
   133.449997       2.36376436E-05
   133.399994       2.35889802E-05
   133.350006       2.35385833E-05
   133.300003       2.34865147E-05
   133.250000       2.34328363E-05
   133.199997       2.33776118E-05
   133.149994       2.33209066E-05
   133.100006       2.32627863E-05
   133.050003       2.32033199E-05
   133.000000       2.31425729E-05
   132.949997       2.30806163E-05
   132.899994       2.30175156E-05
   132.850006       2.29533434E-05
   132.800003       2.28881654E-05
   132.750000       2.28220488E-05
   132.699997       2.27550609E-05
   132.649994       2.26872653E-05
   132.600006       2.26187258E-05
   132.550003       2.25495041E-05
   132.500000       2.24796604E-05
   132.449997       2.24092510E-05
   132.399994       2.23383340E-05
   132.350006       2.22669569E-05
   132.300003       2.21951723E-05
   132.250000       2.21230257E-05
   132.199997       2.20505608E-05
   132.149994       2.19778140E-05
   132.100006       2.19048216E-05
   132.050003       2.18316181E-05
   132.000000       2.17582256E-05
   131.949997       2.16846693E-05
   131.899994       2.16109675E-05
   131.850006       2.15371401E-05
   131.800003       2.14631946E-05
   131.750000       2.13891344E-05
   131.699997       2.13149633E-05
   131.649994       2.12406776E-05
   131.600006       2.11662718E-05
   131.550003       2.10917315E-05
   131.500000       2.10170401E-05
   131.449997       2.09421778E-05
   131.399994       2.08671208E-05
   131.350006       2.07918438E-05
   131.300003       2.07163121E-05
   131.250000       2.06404911E-05
   131.199997       2.05643391E-05
   131.149994       2.04878161E-05
   131.100006       2.04108746E-05
   131.050003       2.03334675E-05
   131.000000       2.02555439E-05
   130.949997       2.01770545E-05
   130.899994       2.00979412E-05
   130.850006       2.00181457E-05
   130.800003       1.99376191E-05
   130.750000       1.98562957E-05
   130.699997       1.97741210E-05
   130.649994       1.96910332E-05
   130.600006       1.96069741E-05
   130.550003       1.95218818E-05
   130.500000       1.94357071E-05
   130.449997       1.93483866E-05
   130.399994       1.92598691E-05
   130.350006       1.91700983E-05
   130.300003       1.90790233E-05
   130.250000       1.89865968E-05
   130.199997       1.88927697E-05
   130.149994       1.87975002E-05
   130.100006       1.87007518E-05
   130.050003       1.86024845E-05
   130.000000       1.85026729E-05
   129.949997       1.84012770E-05
   129.899994       1.82982840E-05
   129.850006       1.81936648E-05
   129.800003       1.80874158E-05
   129.750000       1.79795170E-05
   129.699997       1.78699720E-05
   129.649994       1.77587772E-05
   129.600006       1.76459362E-05
   129.550003       1.75314635E-05
   129.500000       1.74153756E-05
   129.449997       1.72976888E-05
   129.399994       1.71784322E-05
   129.350006       1.70576423E-05
   129.300003       1.69353571E-05
   129.250000       1.68116167E-05
   129.199997       1.66864775E-05
   129.149994       1.65599849E-05
   129.100006       1.64322046E-05
   129.050003       1.63032018E-05
   129.000000       1.61730422E-05
   128.949997       1.60418076E-05
   128.899994       1.59095653E-05
   128.850006       1.57764043E-05
   128.800003       1.56424157E-05
   128.750000       1.55076887E-05
   128.699997       1.53723176E-05
   128.649994       1.52364009E-05
   128.600006       1.51000422E-05
   128.550003       1.49633424E-05
   128.500000       1.48264098E-05
   128.449997       1.46893544E-05
   128.399994       1.45522836E-05
   128.350006       1.44153064E-05
   128.300003       1.42785375E-05
   128.250000       1.41420905E-05
   128.199997       1.40060793E-05
   128.149994       1.38706127E-05
   128.100006       1.37358038E-05
   128.050003       1.36017616E-05
   128.000000       1.34685952E-05
   127.949997       1.33364165E-05
   127.900002       1.32053292E-05
   127.849998       1.30754379E-05
   127.800003       1.29468381E-05
   127.750000       1.28196289E-05
   127.699997       1.26939021E-05
   127.650002       1.25697479E-05
   127.599998       1.24472508E-05
   127.550003       1.23264927E-05
   127.500000       1.22075426E-05
   127.449997       1.20904779E-05
   127.400002       1.19753631E-05
   127.349998       1.18622565E-05
   127.300003       1.17512154E-05
   127.250000       1.16422871E-05
   127.199997       1.15355124E-05
   127.150002       1.14309305E-05
   127.099998       1.13285678E-05
   127.050003       1.12284533E-05
   127.000000       1.11305999E-05
   126.949997       1.10350211E-05
   126.900002       1.09417206E-05
   126.849998       1.08506947E-05
   126.800003       1.07619417E-05
   126.750000       1.06754405E-05
   126.699997       1.05911731E-05
   126.650002       1.05091112E-05
   126.599998       1.04292239E-05
   126.550003       1.03514749E-05
   126.500000       1.02758149E-05
   126.449997       1.02021941E-05
   126.400002       1.01305586E-05
   126.349998       1.00608468E-05
   126.300003       9.99299664E-06
   126.250000       9.92693640E-06
   126.199997       9.86259147E-06
   126.150002       9.79988454E-06
   126.099998       9.73873466E-06
   126.050003       9.67905635E-06
   126.000000       9.62076047E-06
   125.949997       9.56375698E-06
   125.900002       9.50795493E-06
   125.849998       9.45325792E-06
   125.800003       9.39957135E-06
   125.750000       9.34679701E-06
   125.699997       9.29483667E-06
   125.650002       9.24359574E-06
   125.599998       9.19297236E-06
   125.550003       9.14286738E-06
   125.500000       9.09318624E-06
   125.449997       9.04383251E-06
   125.400002       8.99471252E-06
   125.349998       8.94573532E-06
   125.300003       8.89681178E-06
   125.250000       8.84784913E-06
   125.199997       8.79876916E-06
   125.150002       8.74948546E-06
   125.099998       8.69991982E-06
   125.050003       8.65000038E-06
   125.000000       8.59965439E-06
   124.949997       8.54881364E-06
   124.900002       8.49741991E-06
   124.849998       8.44541319E-06
   124.800003       8.39273707E-06
   124.750000       8.33934519E-06
   124.699997       8.28519114E-06
   124.650002       8.23023765E-06
   124.599998       8.17444652E-06
   124.550003       8.11779046E-06
   124.500000       8.06024309E-06
   124.449997       8.00178532E-06
   124.400002       7.94239986E-06
   124.349998       7.88207763E-06
   124.300003       7.82080861E-06
   124.250000       7.75859735E-06
   124.199997       7.69544295E-06
   124.150002       7.63134994E-06
   124.099998       7.56632608E-06
   124.050003       7.50039180E-06
   124.000000       7.43356031E-06
   123.949997       7.36585480E-06
   123.900002       7.29729845E-06
   123.849998       7.22791992E-06
   123.800003       7.15774695E-06
   123.750000       7.08681046E-06
   123.699997       7.01514637E-06
   123.650002       6.94278742E-06
   123.599998       6.86977364E-06
   123.550003       6.79614232E-06
   123.500000       6.72192664E-06
   123.449997       6.64717072E-06
   123.400002       6.57191185E-06
   123.349998       6.49618914E-06
   123.300003       6.42004352E-06
   123.250000       6.34351363E-06
   123.199997       6.26663405E-06
   123.150002       6.18944205E-06
   123.099998       6.11197174E-06
   123.050003       6.03425497E-06
   123.000000       5.95632355E-06
   122.949997       5.87820659E-06
   122.900002       5.79992729E-06
   122.849998       5.72151203E-06
   122.800003       5.64297761E-06
   122.750000       5.56434497E-06
   122.699997       5.48562684E-06
   122.650002       5.40683277E-06
   122.599998       5.32797321E-06
   122.550003       5.24905181E-06
   122.500000       5.17006993E-06
   122.449997       5.09102483E-06
   122.400002       5.01191062E-06
   122.349998       4.93271500E-06
   122.300003       4.85342844E-06
   122.250000       4.77403364E-06
   122.199997       4.69451015E-06
   122.150002       4.61483614E-06
   122.099998       4.53498342E-06
   122.050003       4.45492060E-06
   122.000000       4.37462086E-06
   121.949997       4.29404599E-06
   121.900002       4.21316145E-06
   121.849998       4.13192720E-06
   121.800003       4.05029914E-06
   121.750000       3.96823361E-06
   121.699997       3.88568606E-06
   121.650002       3.80260713E-06
   121.599998       3.71895158E-06
   121.550003       3.63466961E-06
   121.500000       3.54971030E-06
   121.449997       3.46402840E-06
   121.400002       3.37757092E-06
   121.349998       3.29028580E-06
   121.300003       3.20212462E-06
   121.250000       3.11304007E-06
   121.199997       3.02298326E-06
   121.150002       2.93190783E-06
   121.099998       2.83976624E-06
   121.050003       2.74651688E-06
   121.000000       2.65211452E-06
   120.949997       2.55652299E-06
   120.900002       2.45970409E-06
   120.849998       2.36162396E-06
   120.800003       2.26224756E-06
   120.750000       2.16154831E-06
   120.699997       2.05950232E-06
   120.650002       1.95608095E-06
   120.599998       1.85126794E-06
   120.550003       1.74504873E-06
   120.500000       1.63740776E-06
   120.449997       1.52833707E-06
   120.400002       1.41783357E-06
   120.349998       1.30589285E-06
   120.300003       1.19251956E-06
   120.250000       1.07772098E-06
   120.199997       9.61506203E-07
   120.150002       8.43890632E-07
   120.099998       7.24890413E-07
   120.050003       6.04527941E-07
   120.000000       4.82829535E-07
   119.949997       3.59823247E-07
   119.900002       2.35541862E-07
   119.849998       1.10023173E-07
   119.800003      -1.66971876E-08
   119.750000      -1.44571118E-07
   119.699997      -2.73557561E-07
   119.650002      -4.03607061E-07
   119.599998      -5.34668629E-07
   119.550003      -6.66686844E-07
   119.500000      -7.99607960E-07
   119.449997      -9.33370416E-07
   119.400002      -1.06791788E-06
   119.349998      -1.20318737E-06
   119.300003      -1.33911453E-06
   119.250000      -1.47563480E-06
   119.199997      -1.61268542E-06
   119.150002      -1.75019773E-06
   119.099998      -1.88810850E-06
   119.050003      -2.02634806E-06
   119.000000      -2.16485228E-06
   118.949997      -2.30355181E-06
   118.900002      -2.44238095E-06
   118.849998      -2.58127511E-06
   118.800003      -2.72017246E-06
   118.750000      -2.85900728E-06
   118.699997      -2.99771955E-06
   118.650002      -3.13625014E-06
   118.599998      -3.27453904E-06
   118.550003      -3.41253030E-06
   118.500000      -3.55017323E-06
   118.449997      -3.68741371E-06
   118.400002      -3.82420558E-06
   118.349998      -3.96050064E-06
   118.300003      -4.09625864E-06
   118.250000      -4.23143911E-06
   118.199997      -4.36600612E-06
   118.150002      -4.49992376E-06
   118.099998      -4.63316837E-06
   118.050003      -4.76570813E-06
   118.000000      -4.89752438E-06
   117.949997      -5.02859575E-06
   117.900002      -5.15891088E-06
   117.849998      -5.28845703E-06
   117.800003      -5.41722557E-06
   117.750000      -5.54521557E-06
   117.699997      -5.67242614E-06
   117.650002      -5.79886137E-06
   117.599998      -5.92453034E-06
   117.550003      -6.04944535E-06
   117.500000      -6.17362184E-06
   117.449997      -6.29707802E-06
   117.400002      -6.41983797E-06
   117.349998      -6.54192854E-06
   117.300003      -6.66338019E-06
   117.250000      -6.78422475E-06
   117.199997      -6.90450088E-06
   117.150002      -7.02424722E-06
   117.099998      -7.14350563E-06
   117.050003      -7.26232474E-06
   117.000000      -7.38075187E-06
   116.949997      -7.49883702E-06
   116.900002      -7.61663478E-06
   116.849998      -7.73419742E-06
   116.800003      -7.85158772E-06
   116.750000      -7.96886161E-06
   116.699997      -8.08608183E-06
   116.650002      -8.20330933E-06
   116.599998      -8.32060869E-06
   116.550003      -8.43804264E-06
   116.500000      -8.55567578E-06
   116.449997      -8.67357721E-06
   116.400002      -8.79180971E-06
   116.349998      -8.91044147E-06
   116.300003      -9.02953707E-06
   116.250000      -9.14916109E-06
   116.199997      -9.26938083E-06
   116.150002      -9.39025540E-06
   116.099998      -9.51185211E-06
   116.050003      -9.63423099E-06
   116.000000      -9.75745297E-06
   115.949997      -9.88157353E-06
   115.900002      -1.00066509E-05
   115.849998      -1.01327396E-05
   115.800003      -1.02598897E-05
   115.750000      -1.03881530E-05
   115.699997      -1.05175759E-05
   115.650002      -1.06481993E-05
   115.599998      -1.07800661E-05
   115.550003      -1.09132134E-05
   115.500000      -1.10476749E-05
   115.449997      -1.11834806E-05
   115.400002      -1.13206597E-05
   115.349998      -1.14592349E-05
   115.300003      -1.15992252E-05
   115.250000      -1.17406453E-05
   115.199997      -1.18835087E-05
   115.150002      -1.20278228E-05
   115.099998      -1.21735929E-05
   115.050003      -1.23208174E-05
   115.000000      -1.24694916E-05
   114.949997      -1.26196055E-05
   114.900002      -1.27711482E-05
   114.849998      -1.29241043E-05
   114.800003      -1.30784510E-05
   114.750000      -1.32341638E-05
   114.699997      -1.33912163E-05
   114.650002      -1.35495748E-05
   114.599998      -1.37092020E-05
   114.550003      -1.38700607E-05
   114.500000      -1.40321063E-05
   114.449997      -1.41952914E-05
   114.400002      -1.43595662E-05
   114.349998      -1.45248778E-05
   114.300003      -1.46911716E-05
   114.250000      -1.48583867E-05
   114.199997      -1.50264623E-05
   114.150002      -1.51953354E-05
   114.099998      -1.53649416E-05
   114.050003      -1.55352081E-05
   114.000000      -1.57060695E-05
   113.949997      -1.58774510E-05
   113.900002      -1.60492837E-05
   113.849998      -1.62214910E-05
   113.800003      -1.63939985E-05
   113.750000      -1.65667316E-05
   113.699997      -1.67396120E-05
   113.650002      -1.69125651E-05
   113.599998      -1.70855146E-05
   113.550003      -1.72583841E-05
   113.500000      -1.74310990E-05
   113.449997      -1.76035828E-05
   113.400002      -1.77757611E-05
   113.349998      -1.79475610E-05
   113.300003      -1.81189098E-05
   113.250000      -1.82897384E-05
   113.199997      -1.84599776E-05
   113.150002      -1.86295583E-05
   113.099998      -1.87984188E-05
   113.050003      -1.89664916E-05
   113.000000      -1.91337185E-05
   112.949997      -1.93000378E-05
   112.900002      -1.94653967E-05
   112.849998      -1.96297387E-05
   112.800003      -1.97930131E-05
   112.750000      -1.99551687E-05
   112.699997      -2.01161638E-05
   112.650002      -2.02759529E-05