   155.449997       3.16794990E-06
   155.399994       3.24314738E-06
   155.350006       3.32021204E-06
   155.300003       3.39915186E-06
   155.250000       3.47997116E-06
   155.199997       3.56267083E-06
   155.149994       3.64724951E-06
   155.100006       3.73370062E-06
   155.050003       3.82201415E-06
   155.000000       3.91217554E-06
   154.949997       4.00416911E-06
   154.899994       4.09797258E-06
   154.850006       4.19356002E-06
   154.800003       4.29090414E-06
   154.750000       4.38997040E-06
   154.699997       4.49072104E-06
   154.649994       4.59311696E-06
   154.600006       4.69711222E-06
   154.550003       4.80265908E-06
   154.500000       4.90970433E-06
   154.449997       5.01818840E-06
   154.399994       5.12805082E-06
   154.350006       5.23922427E-06
   154.300003       5.35163645E-06
   154.250000       5.46521005E-06
   154.199997       5.57986323E-06
   154.149994       5.69550639E-06
   154.100006       5.81204722E-06
   154.050003       5.92938659E-06
   154.000000       6.04741990E-06
   153.949997       6.16603802E-06
   153.899994       6.28512544E-06
   153.850006       6.40456346E-06
   153.800003       6.52422750E-06
   153.750000       6.64399022E-06
   153.699997       6.76371928E-06
   153.649994       6.88327964E-06
   153.600006       7.00253167E-06
   153.550003       7.12133533E-06
   153.500000       7.23954645E-06
   153.449997       7.35702042E-06
   153.399994       7.47360946E-06
   153.350006       7.58916303E-06
   153.300003       7.70353199E-06
   153.250000       7.81656308E-06
   153.199997       7.92810442E-06
   153.149994       8.03800231E-06
   153.100006       8.14610212E-06
   153.050003       8.25224924E-06
   153.000000       8.35629089E-06
   152.949997       8.45807335E-06
   152.899994       8.55744383E-06
   152.850006       8.65425227E-06
   152.800003       8.74835132E-06
   152.750000       8.83959365E-06
   152.699997       8.92783828E-06
   152.649994       9.01294879E-06
   152.600006       9.09479058E-06
   152.550003       9.17323723E-06
   152.500000       9.24816686E-06
   152.449997       9.31946488E-06
   152.399994       9.38702306E-06
   152.350006       9.45073862E-06
   152.300003       9.51051879E-06
   152.250000       9.56627810E-06
   152.199997       9.61793558E-06
   152.149994       9.66542393E-06
   152.100006       9.70867950E-06
   152.050003       9.74764771E-06
   152.000000       9.78228400E-06
   151.949997       9.81255198E-06
   151.899994       9.83842165E-06
   151.850006       9.85987390E-06
   151.800003       9.87690055E-06
   151.750000       9.88949705E-06
   151.699997       9.89767341E-06
   151.649994       9.90144690E-06
   151.600006       9.90084391E-06
   151.550003       9.89590171E-06
   151.500000       9.88666488E-06
   151.449997       9.87319163E-06
   151.399994       9.85554743E-06
   151.350006       9.83380687E-06
   151.300003       9.80805362E-06
   151.250000       9.77838135E-06
   151.199997       9.74489194E-06
   151.149994       9.70769361E-06
   151.100006       9.66690277E-06
   151.050003       9.62264312E-06
   151.000000       9.57504380E-06
   150.949997       9.52424125E-06
   150.899994       9.47037461E-06
   150.850006       9.41358940E-06
   150.800003       9.35403568E-06
   150.750000       9.29186535E-06
   150.699997       9.22723393E-06
   150.649994       9.16029967E-06
   150.600006       9.09122537E-06
   150.550003       9.02017018E-06
   150.500000       8.94729874E-06
   150.449997       8.87277656E-06
   150.399994       8.79676645E-06
   150.350006       8.71943303E-06
   150.300003       8.64093909E-06
   150.250000       8.56144834E-06
   150.199997       8.48111722E-06
   150.149994       8.40010580E-06
   150.100006       8.31856414E-06
   150.050003       8.23664413E-06
   150.000000       8.15449039E-06
   149.949997       8.07224205E-06
   149.899994       7.99003192E-06
   149.850006       7.90798731E-06
   149.800003       7.82622737E-06
   149.750000       7.74486398E-06
   149.699997       7.66400444E-06
   149.649994       7.58374290E-06
   149.600006       7.50416939E-06
   149.550003       7.42536440E-06
   149.500000       7.34739979E-06
   149.449997       7.27033967E-06
   149.399994       7.19423906E-06
   149.350006       7.11914572E-06
   149.300003       7.04509966E-06
   149.250000       6.97212954E-06
   149.199997       6.90025900E-06
   149.149994       6.82950349E-06
   149.100006       6.75986939E-06
   149.050003       6.69135306E-06
   149.000000       6.62394905E-06
   148.949997       6.55763688E-06
   148.899994       6.49239519E-06
   148.850006       6.42818986E-06
   148.800003       6.36498362E-06
   148.750000       6.30272916E-06
   148.699997       6.24137465E-06
   148.649994       6.18086460E-06
   148.600006       6.12113354E-06
   148.550003       6.06211506E-06
   148.500000       6.00373778E-06
   148.449997       5.94592575E-06
   148.399994       5.88860075E-06
   148.350006       5.83168276E-06
   148.300003       5.77508990E-06
   148.250000       5.71873807E-06
   148.199997       5.66254630E-06
   148.149994       5.60643093E-06
   148.100006       5.55030874E-06
   148.050003       5.49409924E-06
   148.000000       5.43772376E-06
   147.949997       5.38110453E-06
   147.899994       5.32416743E-06
   147.850006       5.26684153E-06
   147.800003       5.20905814E-06
   147.750000       5.15075180E-06
   147.699997       5.09186248E-06
   147.649994       5.03233377E-06
   147.600006       4.97211340E-06
   147.550003       4.91115452E-06
   147.500000       4.84941802E-06
   147.449997       4.78686661E-06
   147.399994       4.72346983E-06
   147.350006       4.65920220E-06
   147.300003       4.59404782E-06
   147.250000       4.52799259E-06
   147.199997       4.46103422E-06
   147.149994       4.39317273E-06
   147.100006       4.32441630E-06
   147.050003       4.25477856E-06
   147.000000       4.18427953E-06
   146.949997       4.11294513E-06
   146.899994       4.04080674E-06
   146.850006       3.96790301E-06
   146.800003       3.89427487E-06
   146.750000       3.81996915E-06
   146.699997       3.74503725E-06
   146.649994       3.66953350E-06
   146.600006       3.59351748E-06
   146.550003       3.51704898E-06
   146.500000       3.44019236E-06
   146.449997       3.36301287E-06
   146.399994       3.28557985E-06
   146.350006       3.20796198E-06
   146.300003       3.13022929E-06
   146.250000       3.05245271E-06
   146.199997       2.97470297E-06
   146.149994       2.89705054E-06
   146.100006       2.81956409E-06
   146.050003       2.74231502E-06
   146.000000       2.66536949E-06
   145.949997       2.58879436E-06
   145.899994       2.51265283E-06
   145.850006       2.43700583E-06
   145.800003       2.36191045E-06
   145.750000       2.28742056E-06
   145.699997       2.21358709E-06
   145.649994       2.14045531E-06
   145.600006       2.06806544E-06
   145.550003       1.99645592E-06
   145.500000       1.92565540E-06
   145.449997       1.85569138E-06
   145.399994       1.78658138E-06
   145.350006       1.71834188E-06
   145.300003       1.65098015E-06
   145.250000       1.58449984E-06
   145.199997       1.51889901E-06
   145.149994       1.45416766E-06
   145.100006       1.39029373E-06
   145.050003       1.32725722E-06
   145.000000       1.26503278E-06
   144.949997       1.20359118E-06
   144.899994       1.14289764E-06
   144.850006       1.08291260E-06
   144.800003       1.02359195E-06
   144.750000       9.64887704E-07
   144.699997       9.06746777E-07
   144.649994       8.49114940E-07
   144.600006       7.91931370E-07
   144.550003       7.35133256E-07
   144.500000       6.78655056E-07
   144.449997       6.22429070E-07
   144.399994       5.66384642E-07
   144.350006       5.10449354E-07
   144.300003       4.54549195E-07
   144.250000       3.98609330E-07
   144.199997       3.42554813E-07
   144.149994       2.86309472E-07
   144.100006       2.29798943E-07
   144.050003       1.72947693E-07
   144.000000       1.15682262E-07
   143.949997       5.79313628E-08
   143.899994      -3.76733034E-10
   143.850006      -5.93092579E-08
   143.800003      -1.18932661E-07
   143.750000      -1.79308500E-07
   143.699997      -2.40496405E-07
   143.649994      -3.02552337E-07
   143.600006      -3.65529132E-07
   143.550003      -4.29474824E-07
   143.500000      -4.94433550E-07
   143.449997      -5.60442913E-07
   143.399994      -6.27539293E-07
   143.350006      -6.95751510E-07
   143.300003      -7.65106279E-07
   143.250000      -8.35622359E-07
   143.199997      -9.07314870E-07
   143.149994      -9.80194500E-07
   143.100006      -1.05426352E-06
   143.050003      -1.12952137E-06
   143.000000      -1.20596189E-06
   142.949997      -1.28357215E-06
   142.899994      -1.36233393E-06
   142.850006      -1.44222770E-06
   142.800003      -1.52322275E-06
   142.750000      -1.60528600E-06
   142.699997      -1.68837948E-06
   142.649994      -1.77245920E-06
   142.600006      -1.85747774E-06
   142.550003      -1.94337986E-06
   142.500000      -2.03011177E-06
   142.449997      -2.11760971E-06
   142.399994      -2.20580932E-06
   142.350006      -2.29464149E-06
   142.300003      -2.38403436E-06
   142.250000      -2.47391199E-06
   142.199997      -2.56419548E-06
   142.149994      -2.65480526E-06
   142.100006      -2.74565582E-06
   142.050003      -2.83666395E-06
   142.000000      -2.92774394E-06
   141.949997      -3.01880573E-06
   141.899994      -3.10976134E-06
   141.850006      -3.20052141E-06
   141.800003      -3.29099771E-06
   141.750000      -3.38109976E-06
   141.699997      -3.47073774E-06
   141.649994      -3.55982411E-06
   141.600006      -3.64827201E-06
   141.550003      -3.73599460E-06
   141.500000      -3.82290773E-06
   141.449997      -3.90892819E-06
   141.399994      -3.99397459E-06
   141.350006      -4.07796870E-06
   141.300003      -4.16083458E-06
   141.250000      -4.24249811E-06
   141.199997      -4.32288971E-06
   141.149994      -4.40194208E-06
   141.100006      -4.47959064E-06
   141.050003      -4.55577447E-06
   141.000000      -4.63043671E-06
   140.949997      -4.70352234E-06
   140.899994      -4.77498406E-06
   140.850006      -4.84477596E-06
   140.800003      -4.91285846E-06
   140.750000      -4.97919291E-06
   140.699997      -5.04374884E-06
   140.649994      -5.10649670E-06
   140.600006      -5.16741466E-06
   140.550003      -5.22648452E-06
   140.500000      -5.28369083E-06
   140.449997      -5.33902585E-06
   140.399994      -5.39248504E-06
   140.350006      -5.44406430E-06
   140.300003      -5.49376864E-06
   140.250000      -5.54160579E-06
   140.199997      -5.58758620E-06
   140.149994      -5.63172307E-06
   140.100006      -5.67403686E-06
   140.050003      -5.71455121E-06
   140.000000      -5.75328795E-06
   139.949997      -5.79027756E-06
   139.899994      -5.82555185E-06
   139.850006      -5.85914586E-06
   139.800003      -5.89109868E-06
   139.750000      -5.92145125E-06
   139.699997      -5.95024494E-06
   139.649994      -5.97753024E-06
   139.600006      -6.00335215E-06
   139.550003      -6.02776436E-06
   139.500000      -6.05081959E-06
   139.449997      -6.07257198E-06
   139.399994      -6.09307654E-06
   139.350006      -6.11239102E-06
   139.300003      -6.13057364E-06
   139.250000      -6.14767941E-06
   139.199997      -6.16377065E-06
   139.149994      -6.17890373E-06
   139.100006      -6.19313914E-06
   139.050003      -6.20653327E-06
   139.000000      -6.21914160E-06
   138.949997      -6.23101778E-06
   138.899994      -6.24221639E-06
   138.850006      -6.25279017E-06
   138.800003      -6.26278779E-06
   138.750000      -6.27225609E-06
   138.699997      -6.28124326E-06
   138.649994      -6.28979114E-06
   138.600006      -6.29794340E-06
   138.550003      -6.30573777E-06
   138.500000      -6.31320881E-06
   138.449997      -6.32039200E-06
   138.399994      -6.32731735E-06
   138.350006      -6.33401532E-06
   138.300003      -6.34050548E-06
   138.250000      -6.34681146E-06
   138.199997      -6.35295009E-06
   138.149994      -6.35893593E-06
   138.100006      -6.36477580E-06
   138.050003      -6.37047378E-06
   138.000000      -6.37603262E-06
   137.949997      -6.38144593E-06
   137.899994      -6.38670690E-06
   137.850006      -6.39180280E-06
   137.800003      -6.39671816E-06
   137.750000      -6.40143026E-06
   137.699997      -6.40591497E-06
   137.649994      -6.41014685E-06
   137.600006      -6.41409406E-06
   137.550003      -6.41772112E-06
   137.500000      -6.42099440E-06
   137.449997      -6.42387340E-06
   137.399994      -6.42631539E-06
   137.350006      -6.42827399E-06
   137.300003      -6.42970645E-06
   137.250000      -6.43056364E-06
   137.199997      -6.43079784E-06
   137.149994      -6.43035401E-06
   137.100006      -6.42917848E-06
   137.050003      -6.42721898E-06
   137.000000      -6.42441682E-06
   136.949997      -6.42071382E-06
   136.899994      -6.41605311E-06
   136.850006      -6.41037241E-06
   136.800003      -6.40361441E-06
   136.750000      -6.39571726E-06
   136.699997      -6.38662414E-06
   136.649994      -6.37627136E-06
   136.600006      -6.36460481E-06
   136.550003      -6.35156721E-06
   136.500000      -6.33710533E-06
   136.449997      -6.32116780E-06
   136.399994      -6.30370096E-06
   136.350006      -6.28466205E-06
   136.300003      -6.26400151E-06
   136.250000      -6.24168160E-06
   136.199997      -6.21766276E-06
   136.149994      -6.19190814E-06
   136.100006      -6.16438865E-06
   136.050003      -6.13506973E-06
   136.000000      -6.10392999E-06
   135.949997      -6.07094626E-06
   135.899994      -6.03609851E-06
   135.850006      -5.99936948E-06
   135.800003      -5.96074824E-06
   135.750000      -5.92022207E-06
   135.699997      -5.87778823E-06
   135.649994      -5.83344126E-06
   135.600006      -5.78718254E-06
   135.550003      -5.73901525E-06
   135.500000      -5.68894893E-06
   135.449997      -5.63699678E-06
   135.399994      -5.58317652E-06
   135.350006      -5.52750726E-06
   135.300003      -5.47001582E-06
   135.250000      -5.41073086E-06
   135.199997      -5.34968603E-06
   135.149994      -5.28691771E-06
   135.100006      -5.22246546E-06
   135.050003      -5.15637612E-06
   135.000000      -5.08869471E-06
   134.949997      -5.01947306E-06
   134.899994      -4.94876576E-06
   134.850006      -4.87662601E-06
   134.800003      -4.80311155E-06
   134.750000      -4.72828287E-06
   134.699997      -4.65220046E-06
   134.649994      -4.57492797E-06
   134.600006      -4.49652998E-06
   134.550003      -4.41707289E-06
   134.500000      -4.33662535E-06
   134.449997      -4.25525604E-06
   134.399994      -4.17303545E-06
   134.350006      -4.09003724E-06
   134.300003      -4.00633326E-06
   134.250000      -3.92199809E-06
   134.199997      -3.83710540E-06
   134.149994      -3.75173136E-06
   134.100006      -3.66595782E-06
   134.050003      -3.57985823E-06
   134.000000      -3.49351262E-06
   133.949997      -3.40699944E-06
   133.899994      -3.32039644E-06
   133.850006      -3.23377958E-06
   133.800003      -3.14722752E-06
   133.750000      -3.06081347E-06
   133.699997      -2.97461065E-06
   133.649994      -2.88869364E-06
   133.600006      -2.80313157E-06
   133.550003      -2.71799286E-06
   133.500000      -2.63334596E-06
   133.449997      -2.54925908E-06
   133.399994      -2.46579361E-06
   133.350006      -2.38301277E-06
   133.300003      -2.30097839E-06
   133.250000      -2.21974892E-06
   133.199997      -2.13938233E-06
   133.149994      -2.05993342E-06
   133.100006      -1.98145722E-06
   133.050003      -1.90400749E-06
   133.000000      -1.82763563E-06
   132.949997      -1.75238961E-06
   132.899994      -1.67831990E-06
   132.850006      -1.60546631E-06
   132.800003      -1.53387441E-06
   132.750000      -1.46358354E-06
   132.699997      -1.39463066E-06
   132.649994      -1.32705111E-06
   132.600006      -1.26087275E-06
   132.550003      -1.19612616E-06
   132.500000      -1.13283738E-06
   132.449997      -1.07102380E-06
   132.399994      -1.01070850E-06
   132.350006      -9.51908703E-07
   132.300003      -8.94634695E-07
   132.250000      -8.38900462E-07
   132.199997      -7.84713734E-07
   132.149994      -7.32074909E-07
   132.100006      -6.80988592E-07
   132.050003      -6.31458249E-07
   132.000000      -5.83482290E-07
   131.949997      -5.37054916E-07
   131.899994      -4.92169931E-07
   131.850006      -4.48819378E-07
   131.800003      -4.06991091E-07
   131.750000      -3.66670690E-07
   131.699997      -3.27844447E-07
   131.649994      -2.90491954E-07
   131.600006      -2.54590873E-07
   131.550003      -2.20116348E-07
   131.500000      -1.87041422E-07
   131.449997      -1.55335314E-07
   131.399994      -1.24964444E-07
   131.350006      -9.58922755E-08
   131.300003      -6.80851642E-08
   131.250000      -4.15008437E-08
   131.199997      -1.60958056E-08
   131.149994       8.17297696E-09
   131.100006       3.13499022E-08
   131.050003       5.34852305E-08
   131.000000       7.46275575E-08
   130.949997       9.48260279E-08
   130.899994       1.14132298E-07
   130.850006       1.32595758E-07
   130.800003       1.50275639E-07
   130.750000       1.67221415E-07
   130.699997       1.83485952E-07
   130.649994       1.99127612E-07
   130.600006       2.14204491E-07
   130.550003       2.28771313E-07
   130.500000       2.42888177E-07
   130.449997       2.56612964E-07
   130.399994       2.70005359E-07
   130.350006       2.83127690E-07
   130.300003       2.96039559E-07
   130.250000       3.08799457E-07
   130.199997       3.21472953E-07
   130.149994       3.34119846E-07
   130.100006       3.46798856E-07
   130.050003       3.59574670E-07
   130.000000       3.72508026E-07
   129.949997       3.85655937E-07
   129.899994       3.99076043E-07
   129.850006       4.12827120E-07
   129.800003       4.26966267E-07
   129.750000       4.41543222E-07
   129.699997       4.56615282E-07
   129.649994       4.72236621E-07
   129.600006       4.88453395E-07
   129.550003       5.05315541E-07
   129.500000       5.22872199E-07
   129.449997       5.41169015E-07
   129.399994       5.60252658E-07
   129.350006       5.80161782E-07
   129.300003       6.00946237E-07
   129.250000       6.22644393E-07
   129.199997       6.45293426E-07
   129.149994       6.68931534E-07
   129.100006       6.93597144E-07
   129.050003       7.19326124E-07
   129.000000       7.46151102E-07
   128.949997       7.74108457E-07
   128.899994       8.03227181E-07
   128.850006       8.33536888E-07
   128.800003       8.65064351E-07
   128.750000       8.97838731E-07
   128.699997       9.31881800E-07
   128.649994       9.67219762E-07
   128.600006       1.00386990E-06
   128.550003       1.04185597E-06
   128.500000       1.08119548E-06
   128.449997       1.12190776E-06
   128.399994       1.16401304E-06
   128.350006       1.20752259E-06
   128.300003       1.25245401E-06
   128.250000       1.29882301E-06
   128.199997       1.34664640E-06
   128.149994       1.39593874E-06
   128.100006       1.44671219E-06
   128.050003       1.49898767E-06
   128.000000       1.55278235E-06
   127.949997       1.60810703E-06
   127.900002       1.66498080E-06
   127.849998       1.72342300E-06
   127.800003       1.78345090E-06
   127.750000       1.84507940E-06
   127.699997       1.90833157E-06
   127.650002       1.97322470E-06
   127.599998       2.03977766E-06
   127.550003       2.10801136E-06
   127.500000       2.17794923E-06
   127.449997       2.24960945E-06
   127.400002       2.32301682E-06
   127.349998       2.39819201E-06
   127.300003       2.47516050E-06
   127.250000       2.55394684E-06
   127.199997       2.63457991E-06
   127.150002       2.71708564E-06
   127.099998       2.80148993E-06
   127.050003       2.88782303E-06
   127.000000       2.97611564E-06
   126.949997       3.06639936E-06
   126.900002       3.15870375E-06
   126.849998       3.25306519E-06
   126.800003       3.34951574E-06
   126.750000       3.44808927E-06
   126.699997       3.54882172E-06
   126.650002       3.65174742E-06
   126.599998       3.75690070E-06
   126.550003       3.86431248E-06
   126.500000       3.97401800E-06
   126.449997       4.08604819E-06
   126.400002       4.20043352E-06
   126.349998       4.31720446E-06
   126.300003       4.43639010E-06
   126.250000       4.55801683E-06
   126.199997       4.68211056E-06
   126.150002       4.80869312E-06
   126.099998       4.93778634E-06
   126.050003       5.06940978E-06
   126.000000       5.20357980E-06
   125.949997       5.34031005E-06
   125.900002       5.47961326E-06
   125.849998       5.62149944E-06
   125.800003       5.76597677E-06
   125.750000       5.91304661E-06
   125.699997       6.06270987E-06
   125.650002       6.21496383E-06
   125.599998       6.36980121E-06
   125.550003       6.52721292E-06
   125.500000       6.68718576E-06
   125.449997       6.84970064E-06
   125.400002       7.01473436E-06
   125.349998       7.18225874E-06
   125.300003       7.35224376E-06
   125.250000       7.52465303E-06
   125.199997       7.69944745E-06
   125.150002       7.87657973E-06
   125.099998       8.05600394E-06
   125.050003       8.23766368E-06
   125.000000       8.42150166E-06
   124.949997       8.60745695E-06
   124.900002       8.79546405E-06
   124.849998       8.98545113E-06
   124.800003       9.17734451E-06
   124.750000       9.37106779E-06
   124.699997       9.56654185E-06
   124.650002       9.76368392E-06
   124.599998       9.96240851E-06
   124.550003       1.01626238E-05
   124.500000       1.03642406E-05
   124.449997       1.05671625E-05
   124.400002       1.07712940E-05
   124.349998       1.09765379E-05
   124.300003       1.11827922E-05
   124.250000       1.13899532E-05
   124.199997       1.15979192E-05
   124.150002       1.18065836E-05
   124.099998       1.20158384E-05
   124.050003       1.22255806E-05
   124.000000       1.24357030E-05
   123.949997       1.26460955E-05
   123.900002       1.28566544E-05
   123.849998       1.30672715E-05
   123.800003       1.32778423E-05
   123.750000       1.34882639E-05
   123.699997       1.36984336E-05
   123.650002       1.39082522E-05
   123.599998       1.41176251E-05
   123.550003       1.43264551E-05
   123.500000       1.45346530E-05
   123.449997       1.47421315E-05
   123.400002       1.49488033E-05
   123.349998       1.51545864E-05
   123.300003       1.53594065E-05
   123.250000       1.55631897E-05
   123.199997       1.57658633E-05
   123.150002       1.59673637E-05
   123.099998       1.61676271E-05
   123.050003       1.63665973E-05
   123.000000       1.65642195E-05
   122.949997       1.67604412E-05
   122.900002       1.69552204E-05
   122.849998       1.71485135E-05
   122.800003       1.73402859E-05
   122.750000       1.75305031E-05
   122.699997       1.77191378E-05
   122.650002       1.79061681E-05
   122.599998       1.80915758E-05
   122.550003       1.82753447E-05
   122.500000       1.84574692E-05
   122.449997       1.86379439E-05
   122.400002       1.88167669E-05
   122.349998       1.89939437E-05
   122.300003       1.91694817E-05
   122.250000       1.93433953E-05
   122.199997       1.95156972E-05
   122.150002       1.96864075E-05
   122.099998       1.98555499E-05
   122.050003       2.00231461E-05
   122.000000       2.01892253E-05
   121.949997       2.03538166E-05
   121.900002       2.05169526E-05
   121.849998       2.06786626E-05
   121.800003       2.08389829E-05
   121.750000       2.09979498E-05
   121.699997       2.11556016E-05
   121.650002       2.13119729E-05
   121.599998       2.14671054E-05
   121.550003       2.16210374E-05
   121.500000       2.17738088E-05
   121.449997       2.19254580E-05
   121.400002       2.20760267E-05
   121.349998       2.22255567E-05
   121.300003       2.23740863E-05
   121.250000       2.25216554E-05
   121.199997       2.26683023E-05
   121.150002       2.28140634E-05
   121.099998       2.29589750E-05
   121.050003       2.31030735E-05
   121.000000       2.32463881E-05
   120.949997       2.33889496E-05
   120.900002       2.35307889E-05
   120.849998       2.36719279E-05
   120.800003       2.38123866E-05
   120.750000       2.39521905E-05
   120.699997       2.40913469E-05
   120.650002       2.42298775E-05
   120.599998       2.43677896E-05
   120.550003       2.45050887E-05
   120.500000       2.46417821E-05
   120.449997       2.47778717E-05
   120.400002       2.49133554E-05
   120.349998       2.50482299E-05
   120.300003       2.51824895E-05
   120.250000       2.53161252E-05
   120.199997       2.54491260E-05
   120.150002       2.55814793E-05
   120.099998       2.57131669E-05
   120.050003       2.58441723E-05
   120.000000       2.59744793E-05
   119.949997       2.61040623E-05
   119.900002       2.62329031E-05
   119.849998       2.63609727E-05
   119.800003       2.64882456E-05
   119.750000       2.66146926E-05
   119.699997       2.67402829E-05
   119.650002       2.68649874E-05
   119.599998       2.69887751E-05
   119.550003       2.71116114E-05
   119.500000       2.72334637E-05
   119.449997       2.73542973E-05
   119.400002       2.74740833E-05
   119.349998       2.75927887E-05
   119.300003       2.77103827E-05
   119.250000       2.78268326E-05
   119.199997       2.79421147E-05
   119.150002       2.80562035E-05
   119.099998       2.81690700E-05
   119.050003       2.82806977E-05
   119.000000       2.83910649E-05
   118.949997       2.85001533E-05
   118.900002       2.86079503E-05
   118.849998       2.87144430E-05
   118.800003       2.88196243E-05
   118.750000       2.89234849E-05
   118.699997       2.90260250E-05
   118.650002       2.91272427E-05
   118.599998       2.92271397E-05
   118.550003       2.93257199E-05
   118.500000       2.94229940E-05
   118.449997       2.95189730E-05
   118.400002       2.96136768E-05
   118.349998       2.97071183E-05
   118.300003       2.97993229E-05
   118.250000       2.98903160E-05
   118.199997       2.99801250E-05
   118.150002       3.00687861E-05
   118.099998       3.01563359E-05
   118.050003       3.02428143E-05
   118.000000       3.03282650E-05
   117.949997       3.04127352E-05
   117.900002       3.04962759E-05
   117.849998       3.05789399E-05
   117.800003       3.06607799E-05
   117.750000       3.07418595E-05
   117.699997       3.08222334E-05
   117.650002       3.09019706E-05
   117.599998       3.09811294E-05
   117.550003       3.10597788E-05
   117.500000       3.11379845E-05
   117.449997       3.12158190E-05
   117.400002       3.12933444E-05
   117.349998       3.13706332E-05
   117.300003       3.14477584E-05
   117.250000       3.15247853E-05
   117.199997       3.16017940E-05
   117.150002       3.16788501E-05
   117.099998       3.17560261E-05
   117.050003       3.18333914E-05
   117.000000       3.19110186E-05
   116.949997       3.19889805E-05
   116.900002       3.20673425E-05
   116.849998       3.21461775E-05
   116.800003       3.22255473E-05
   116.750000       3.23055210E-05
   116.699997       3.23861605E-05
   116.650002       3.24675275E-05
   116.599998       3.25496840E-05
   116.550003       3.26326845E-05
   116.500000       3.27165835E-05
   116.449997       3.28014357E-05
   116.400002       3.28872884E-05
   116.349998       3.29741815E-05
   116.300003       3.30621624E-05
   116.250000       3.31512674E-05
   116.199997       3.32415293E-05
   116.150002       3.33329845E-05
   116.099998       3.34256511E-05
   116.050003       3.35195582E-05
   116.000000       3.36147241E-05
   115.949997       3.37111633E-05
   115.900002       3.38088830E-05
   115.849998       3.39078979E-05
   115.800003       3.40082079E-05
   115.750000       3.41098057E-05
   115.699997       3.42126950E-05
   115.650002       3.43168576E-05
   115.599998       3.44222753E-05
   115.550003       3.45289445E-05
   115.500000       3.46368288E-05
   115.449997       3.47459063E-05
   115.400002       3.48561407E-05
   115.349998       3.49674956E-05
   115.300003       3.50799346E-05
   115.250000       3.51934104E-05
   115.199997       3.53078722E-05
   115.150002       3.54232652E-05
   115.099998       3.55395350E-05
   115.050003       3.56566197E-05
   115.000000       3.57744539E-05
   114.949997       3.58929719E-05
   114.900002       3.60120976E-05
   114.849998       3.61317616E-05
   114.800003       3.62518913E-05
   114.750000       3.63724030E-05
   114.699997       3.64932166E-05
   114.650002       3.66142485E-05
   114.599998       3.67354187E-05
   114.550003       3.68566398E-05
   114.500000       3.69778245E-05
   114.449997       3.70988855E-05
   114.400002       3.72197319E-05
   114.349998       3.73402800E-05
   114.300003       3.74604351E-05
   114.250000       3.75801101E-05
   114.199997       3.76992139E-05
   114.150002       3.78176519E-05
   114.099998       3.79353442E-05
   114.050003       3.80521960E-05
   114.000000       3.81681202E-05
   113.949997       3.82830294E-05
   113.900002       3.83968472E-05
   113.849998       3.85094827E-05
   113.800003       3.86208521E-05
   113.750000       3.87308864E-05
   113.699997       3.88395092E-05
   113.650002       3.89466404E-05
   113.599998       3.90522109E-05
   113.550003       3.91561589E-05
   113.500000       3.92584152E-05
   113.449997       3.93589253E-05
   113.400002       3.94576236E-05
   113.349998       3.95544557E-05
   113.300003       3.96493742E-05
   113.250000       3.97423282E-05
   113.199997       3.98332777E-05
   113.150002       3.99221753E-05
   113.099998       4.00089884E-05
   113.050003       4.00936769E-05
   113.000000       4.01762190E-05
   112.949997       4.02565747E-05
   112.900002       4.03347221E-05
   112.849998       4.04106431E-05
   112.800003       4.04843158E-05
   112.750000       4.05557221E-05
   112.699997       4.06248510E-05
   112.650002       4.06916952E-05