  -4.50000000       0.00000000    
  -4.44999981       0.00000000    
  -4.40000010       0.00000000    
  -4.34999990       0.00000000    
  -4.30000019       0.00000000    
  -4.25000000       0.00000000    
  -4.19999981      -2.90452559E-37
  -4.15000010      -5.09445720E-36
  -4.09999990      -4.09752707E-35
  -4.05000019      -2.09063438E-34
  -4.00000000      -7.77574177E-34
  -3.95000005      -2.25488818E-33
  -3.90000010      -5.27471425E-33
  -3.84999990      -1.00667499E-32
  -3.79999995      -1.54695644E-32
  -3.75000000      -1.80423366E-32
  -3.70000005      -1.27476323E-32
  -3.65000010       2.76082315E-33
  -3.59999990       1.92906220E-32
  -3.54999995       5.75209757E-33
  -3.50000000      -9.30139351E-32
  -3.45000005      -3.35038718E-31
  -3.40000010      -7.25039038E-31
  -3.34999990      -1.13260272E-30
  -3.29999995      -1.23187172E-30
  -3.25000000      -5.43004804E-31
  -3.20000005       1.36112494E-30
  -3.15000010       4.53391707E-30
  -3.09999990       8.48012007E-30
  -3.04999995       1.25710029E-29
  -3.00000000       1.73948503E-29
  -2.95000005       2.67162023E-29
  -2.90000010       4.84209362E-29
  -2.84999990       9.14612274E-29
  -2.79999995       1.55737207E-28
  -2.75000000       2.14886885E-28
  -2.70000005       1.99210201E-28
  -2.65000010      -3.99431100E-30
  -2.59999990      -5.08176742E-28
  -2.54999995      -1.32416360E-27
  -2.50000000      -2.20451725E-27
  -2.45000005      -2.49851566E-27
  -2.40000010      -1.14734792E-27
  -2.34999990       3.00827080E-27
  -2.29999995       1.04732024E-26
  -2.25000000       1.99347986E-26
  -2.20000005       2.70557936E-26
  -2.15000010       2.39973691E-26
  -2.09999990       7.55205087E-28
  -2.04999995      -5.06898907E-26
  -2.00000000      -1.29178315E-25
  -1.95000005      -2.15528879E-25
  -1.89999998      -2.65709332E-25
  -1.85000002      -2.11881482E-25
  -1.79999995       2.19842700E-26
  -1.75000000       4.85265123E-25
  -1.70000005       1.14815628E-24
  -1.64999998       1.84341056E-24
  -1.60000002       2.22701863E-24
  -1.54999995       1.79316801E-24
  -1.50000000      -1.91092988E-26
  -1.45000005      -3.60386371E-24
  -1.39999998      -8.86111678E-24
  -1.35000002      -1.48290467E-23
  -1.29999995      -1.94039162E-23
  -1.25000000      -1.93301703E-23
  -1.20000005      -1.06598096E-23
  -1.14999998       1.01716979E-23
  -1.10000002       4.46467599E-23
  -1.04999995       9.00693614E-23
  -1.00000000       1.37583413E-22
 -0.949999988       1.71095322E-22
 -0.899999976       1.68046255E-22
 -0.850000024       1.02905460E-22
 -0.800000012      -4.61517929E-23
 -0.750000000      -2.87701990E-22
 -0.699999988      -6.06071913E-22
 -0.649999976      -9.51497215E-22
 -0.600000024      -1.23507355E-21
 -0.550000012      -1.33257131E-21
 -0.500000000      -1.10061742E-21
 -0.449999988      -4.06928988E-22
 -0.400000006       8.26849468E-22
 -0.349999994       2.57529234E-21
 -0.300000012       4.66234294E-21
 -0.250000000       6.73116527E-21
 -0.200000003       8.24597531E-21
 -0.150000006       8.53959131E-21
 -0.100000001       6.91464346E-21
  -5.00000007E-02   2.79654054E-21
   2.49800181E-16  -4.07688849E-21
   5.00000007E-02  -1.34586212E-20
  0.100000001      -2.44308747E-20
  0.150000006      -3.53284445E-20
  0.200000003      -4.37954944E-20
  0.250000000      -4.70117826E-20
  0.300000012      -4.20996836E-20
  0.349999994      -2.66887724E-20
  0.400000006       4.26171338E-22
  0.449999988       3.86366403E-20
  0.500000000       8.50137847E-20
  0.550000012       1.34086132E-19
  0.600000024       1.78027957E-19
  0.649999976       2.07339671E-19
  0.699999988       2.12026566E-19
  0.750000000       1.83191645E-19
  0.800000012       1.14857130E-19
  0.850000024       5.74528957E-21
  0.899999976      -1.39305267E-19
  0.949999988      -3.08610798E-19
   1.00000000      -4.83870466E-19
   1.04999995      -6.41496401E-19
   1.10000002      -7.55020426E-19
   1.14999998      -7.98361123E-19
   1.20000005      -7.49545783E-19
   1.25000000      -5.94342919E-19
   1.29999995      -3.29213929E-19
   1.35000002       3.69568853E-20
   1.39999998       4.82724666E-19
   1.45000005       9.75634097E-19
   1.50000000       1.47523671E-18
   1.54999995       1.93702849E-18
   1.60000002       2.31654371E-18
   1.64999998       2.57273250E-18
   1.70000005       2.66988735E-18
   1.75000000       2.57769455E-18
   1.79999995       2.26953234E-18
   1.85000002       1.71973145E-18
   1.89999998       9.01132834E-19
   1.95000005      -2.15285917E-19
   2.00000000      -1.65686396E-18
   2.04999995      -3.44026071E-18
   2.09999990      -5.55635622E-18
   2.15000010      -7.94976321E-18
   2.20000005      -1.04952163E-17
   2.25000000      -1.29751683E-17
   2.29999995      -1.50640310E-17
   2.34999990      -1.63259761E-17
   2.40000010      -1.62325411E-17
   2.45000005      -1.42055432E-17
   2.50000000      -9.68755966E-18
   2.54999995      -2.23860861E-18
   2.59999990       8.34768919E-18
   2.65000010       2.19205212E-17
   2.70000005       3.78579986E-17
   2.75000000       5.49841280E-17
   2.79999995       7.15392050E-17
   2.84999990       8.52248685E-17
   2.90000010       9.33400926E-17
   2.95000005       9.30163342E-17
   3.00000000       8.15462243E-17
   3.04999995       5.67873520E-17
   3.09999990       1.76084385E-17
   3.15000010      -3.56736959E-17
   3.20000005      -1.00923287E-16
   3.25000000      -1.73948962E-16
   3.29999995      -2.48462557E-16
   3.34999990      -3.16291764E-16
   3.40000010      -3.67875541E-16
   3.45000005      -3.93054204E-16
   3.50000000      -3.82123694E-16
   3.54999995      -3.27085743E-16
   3.59999990      -2.22991005E-16
   3.65000010      -6.92340776E-17
   3.70000005       1.29363385E-16
   3.75000000       3.61854672E-16
   3.79999995       6.11015263E-16
   3.84999990       8.53883961E-16
   3.90000010       1.06306341E-15
   3.95000005       1.20881374E-15
   4.00000000       1.26186225E-15
   4.05000019       1.19675580E-15
   4.09999990       9.95529364E-16
   4.15000010       6.51323920E-16
   4.19999981       1.71561322E-16
   4.25000000      -4.19750645E-16
   4.30000019      -1.08101235E-15
   4.34999990      -1.75371364E-15
   4.40000010      -2.36507565E-15
   4.44999981      -2.83276638E-15
   4.50000000      -3.07172856E-15
   4.55000019      -3.00277182E-15
   4.59999990      -2.56255122E-15
   4.65000010      -1.71421596E-15
   4.69999981      -4.57870701E-16
   4.75000000       1.16013328E-15
   4.80000019       3.04017404E-15
   4.84999990       5.02560106E-15
   4.90000010       6.90338967E-15
   4.94999981       8.40962770E-15
   5.00000000       9.24080335E-15
   5.05000019       9.07052262E-15
   5.09999990       7.57170629E-15
   5.15000010       4.44324050E-15
   5.19999981      -5.59947594E-16
   5.25000000      -7.59523348E-15
   5.30000019      -1.67011316E-14
   5.34999990      -2.77687114E-14
   5.40000010      -4.05184207E-14
   5.44999981      -5.44842322E-14
   5.50000000      -6.90076997E-14
   5.55000019      -8.32435724E-14
   5.59999990      -9.61785583E-14
   5.65000010      -1.06663478E-13
   5.69999981      -1.13458491E-13
   5.75000000      -1.15291349E-13
   5.80000019      -1.10925842E-13
   5.84999990      -9.92377635E-14
   5.90000010      -7.92952130E-14
   5.94999981      -5.04399650E-14
   6.00000000      -1.23628550E-14
   6.05000019       3.48281584E-14
   6.09999990       9.05557909E-14
   6.15000010       1.53738079E-13
   6.19999981       2.22777105E-13
   6.25000000       2.95573787E-13
   6.30000019       3.69571913E-13
   6.34999990       4.41832822E-13
   6.40000010       5.09141232E-13
   6.44999981       5.68145303E-13
   6.50000000       6.15518270E-13
   6.55000019       6.48160887E-13
   6.59999990       6.63408076E-13
   6.65000010       6.59267346E-13
   6.69999981       6.34664793E-13
   6.75000000       5.89692249E-13
   6.80000019       5.25852040E-13
   6.84999990       4.46293583E-13
   6.90000010       3.56024563E-13
   6.94999981       2.62095358E-13
   7.00000000       1.73742571E-13
   7.05000019       1.02485125E-13
   7.09999990       6.21622775E-14
   7.15000010       6.89060354E-14
   7.19999981       1.41037071E-13
   7.25000000       2.98884019E-13
   7.30000019       5.64521628E-13
   7.34999990       9.61407494E-13
   7.40000010       1.51393893E-12
   7.44999981       2.24692747E-12
   7.50000000       3.18495252E-12
   7.55000019       4.35167223E-12
   7.59999990       5.76907749E-12
   7.65000010       7.45657442E-12
   7.69999981       9.43019014E-12
   7.75000000       1.17015304E-11
   7.80000019       1.42769841E-11
   7.84999990       1.71566407E-11
   7.90000010       2.03333721E-11
   7.94999981       2.37920430E-11
   8.00000000       2.75084868E-11
   8.05000019       3.14488609E-11
   8.10000038       3.55688083E-11
   8.14999962       3.98128093E-11
   8.19999981       4.41136745E-11
   8.25000000       4.83919432E-11
   8.30000019       5.25554669E-11
   8.35000038       5.64989514E-11
   8.39999962       6.01036443E-11
   8.44999981       6.32369226E-11
   8.50000000       6.57517998E-11
   8.55000019       6.74862805E-11
   8.60000038       6.82631035E-11
   8.64999962       6.78885143E-11
   8.69999981       6.61513830E-11
   8.75000000       6.28220462E-11
   8.80000019       5.76501971E-11
   8.85000038       5.03632622E-11
   8.89999962       4.06640242E-11
   8.94999981       2.82272816E-11
   9.00000000       1.26968037E-11
   9.05000019      -6.31880789E-12
   9.10000038      -2.92506297E-11
   9.14999962      -5.65742210E-11
   9.19999981      -8.88163501E-11
   9.25000000      -1.26560831E-10
   9.30000019      -1.70454525E-10
   9.35000038      -2.21216670E-10
   9.39999962      -2.79645501E-10
   9.44999981      -3.46628087E-10
   9.50000000      -4.23149460E-10
   9.55000019      -5.10302856E-10
   9.60000038      -6.09297557E-10
   9.64999962      -7.21474047E-10
   9.69999981      -8.48308035E-10
   9.75000000      -9.91429605E-10
   9.80000019      -1.15262599E-09
   9.85000038      -1.33386113E-09
   9.89999962      -1.53728075E-09
   9.94999981      -1.76522863E-09
   10.0000000      -2.02024819E-09
   10.0500002      -2.30509944E-09
   10.1000004      -2.62277444E-09
   10.1499996      -2.97649483E-09
   10.1999998      -3.36972139E-09
   10.2500000      -3.80617093E-09
   10.3000002      -4.28981606E-09
   10.3500004      -4.82488360E-09
   10.3999996      -5.41586775E-09
   10.4499998      -6.06753314E-09
   10.5000000      -6.78489753E-09
   10.5500002      -7.57325846E-09
   10.6000004      -8.43818437E-09
   10.6499996      -9.38547728E-09
   10.6999998      -1.04211990E-08
   10.7500000      -1.15516556E-08
   10.8000002      -1.27833832E-08
   10.8500004      -1.41231196E-08
   10.8999996      -1.55778199E-08
   10.9499998      -1.71546137E-08
   11.0000000      -1.88607743E-08
   11.0500002      -2.07037516E-08
   11.1000004      -2.26910419E-08
   11.1499996      -2.48302854E-08
   11.1999998      -2.71291398E-08
   11.2500000      -2.95953289E-08
   11.3000002      -3.22364926E-08
   11.3500004      -3.50601823E-08
   11.3999996      -3.80739564E-08
   11.4499998      -4.12852259E-08
   11.5000000      -4.47011104E-08
   11.5500002      -4.83285945E-08
   11.6000004      -5.21743679E-08
   11.6499996      -5.62446800E-08
   11.6999998      -6.05455313E-08
   11.7500000      -6.50825100E-08
   11.8000002      -6.98604765E-08
   11.8500004      -7.48839426E-08
   11.8999996      -8.01568447E-08
   11.9499998      -8.56822808E-08
   12.0000000      -9.14627805E-08
   12.0500002      -9.75000347E-08
   12.1000004      -1.03794868E-07
   12.1499996      -1.10347351E-07
   12.1999998      -1.17156375E-07
   12.2500000      -1.24219966E-07
   12.3000002      -1.31535174E-07
   12.3500004      -1.39097779E-07
   12.3999996      -1.46902480E-07
   12.4499998      -1.54942896E-07
   12.5000000      -1.63211453E-07
   12.5500002      -1.71699057E-07
   12.6000004      -1.80395503E-07
   12.6499996      -1.89289395E-07
   12.6999998      -1.98367871E-07
   12.7500000      -2.07616608E-07
   12.8000002      -2.17020244E-07
   12.8500004      -2.26561852E-07
   12.8999996      -2.36223187E-07
   12.9499998      -2.45984637E-07
   13.0000000      -2.55825455E-07
   13.0500002      -2.65723145E-07
   13.1000004      -2.75654372E-07
   13.1499996      -2.85594439E-07
   13.1999998      -2.95517310E-07
   13.2500000      -3.05395986E-07
   13.3000002      -3.15202556E-07
   13.3500004      -3.24907290E-07
   13.3999996      -3.34480518E-07
   13.4499998      -3.43890719E-07
   13.5000000      -3.53106117E-07
   13.5500002      -3.62094369E-07
   13.6000004      -3.70821795E-07
   13.6499996      -3.79254772E-07
   13.6999998      -3.87358853E-07
   13.7500000      -3.95099761E-07
   13.8000002      -4.02441970E-07
   13.8500004      -4.09350719E-07
   13.8999996      -4.15790737E-07
   13.9499998      -4.21727094E-07
   14.0000000      -4.27124348E-07
   14.0500002      -4.31948138E-07
   14.1000004      -4.36163816E-07
   14.1499996      -4.39737647E-07
   14.1999998      -4.42636434E-07
   14.2500000      -4.44827265E-07
   14.3000002      -4.46278648E-07
   14.3500004      -4.46959177E-07
   14.3999996      -4.46838925E-07
   14.4499998      -4.45889583E-07
   14.5000000      -4.44082474E-07
   14.5500002      -4.41391904E-07
   14.6000004      -4.37792721E-07
   14.6499996      -4.33261505E-07
   14.6999998      -4.27775774E-07
   14.7500000      -4.21315633E-07
   14.8000002      -4.13861670E-07
   14.8500004      -4.05397401E-07
   14.8999996      -3.95907762E-07
   14.9499998      -3.85379821E-07
   15.0000000      -3.73802067E-07
   15.0500002      -3.61165064E-07
   15.1000004      -3.47461793E-07
   15.1499996      -3.32687819E-07
   15.1999998      -3.16839504E-07
   15.2500000      -2.99916621E-07
   15.3000002      -2.81920933E-07
   15.3500004      -2.62855764E-07
   15.3999996      -2.42727566E-07
   15.4499998      -2.21544340E-07
   15.5000000      -1.99316773E-07
   15.5500002      -1.76057782E-07
   15.6000004      -1.51782530E-07
   15.6499996      -1.26508695E-07
   15.6999998      -1.00255612E-07
   15.7500000      -7.30449585E-08
   15.8000002      -4.49005455E-08
   15.8500004      -1.58483981E-08
   15.8999996       1.40837013E-08
   15.9499998       4.48664643E-08
   16.0000000       7.64685240E-08
   16.0499992       1.08855801E-07
   16.1000004       1.41994477E-07
   16.1499996       1.75847731E-07
   16.2000008       2.10379184E-07
   16.2500000       2.45549927E-07
   16.2999992       2.81320638E-07
   16.3500004       3.17650461E-07
   16.3999996       3.54499946E-07
   16.4500008       3.91826006E-07
   16.5000000       4.29587686E-07
   16.5499992       4.67743746E-07
   16.6000004       5.06252206E-07
   16.6499996       5.45072680E-07
   16.7000008       5.84164354E-07
   16.7500000       6.23488347E-07
   16.7999992       6.63006176E-07
   16.8500004       7.02680268E-07
   16.8999996       7.42475095E-07
   16.9500008       7.82356665E-07
   17.0000000       8.22292293E-07
   17.0499992       8.62252705E-07
   17.1000004       9.02209706E-07
   17.1499996       9.42136694E-07
   17.2000008       9.82012239E-07
   17.2500000       1.02181525E-06
   17.2999992       1.06152822E-06
   17.3500004       1.10113751E-06
   17.3999996       1.14063209E-06
   17.4500008       1.18000185E-06
   17.5000000       1.21924165E-06
   17.5499992       1.25834902E-06
   17.6000004       1.29732484E-06
   17.6499996       1.33617198E-06
   17.7000008       1.37489644E-06
   17.7500000       1.41350711E-06
   17.7999992       1.45201614E-06
   17.8500004       1.49043683E-06
   17.8999996       1.52878431E-06
   17.9500008       1.56707722E-06
   18.0000000       1.60533443E-06
   18.0499992       1.64357743E-06
   18.1000004       1.68182748E-06
   18.1499996       1.72010641E-06
   18.2000008       1.75843854E-06
   18.2500000       1.79684537E-06
   18.2999992       1.83534905E-06
   18.3500004       1.87397006E-06
   18.3999996       1.91272784E-06
   18.4500008       1.95164057E-06
   18.5000000       1.99072224E-06
   18.5499992       2.02998467E-06
   18.6000004       2.06943741E-06
   18.6499996       2.10908365E-06
   18.7000008       2.14892293E-06
   18.7500000       2.18895002E-06
   18.7999992       2.22915446E-06
   18.8500004       2.26951829E-06
   18.8999996       2.31001763E-06
   18.9500008       2.35062089E-06
   19.0000000       2.39128963E-06
   19.0499992       2.43197655E-06
   19.1000004       2.47262301E-06
   19.1499996       2.51316783E-06
   19.2000008       2.55353302E-06
   19.2500000       2.59363605E-06
   19.2999992       2.63338052E-06
   19.3500004       2.67266182E-06
   19.3999996       2.71136355E-06
   19.4500008       2.74935951E-06
   19.5000000       2.78650873E-06
   19.5499992       2.82266160E-06
   19.6000004       2.85765691E-06
   19.6499996       2.89132140E-06
   19.7000008       2.92347045E-06
   19.7500000       2.95390919E-06
   19.7999992       2.98242912E-06
   19.8500004       3.00881538E-06
   19.8999996       3.03283628E-06
   19.9500008       3.05425647E-06
   20.0000000       3.07282630E-06
   20.0499992       3.08829021E-06
   20.1000004       3.10038240E-06
   20.1499996       3.10882933E-06
   20.2000008       3.11334952E-06
   20.2500000       3.11365807E-06
   20.2999992       3.10946348E-06
   20.3500004       3.10047108E-06
   20.3999996       3.08638118E-06
   20.4500008       3.06689481E-06
   20.5000000       3.04171067E-06
   20.5499992       3.01052864E-06
   20.6000004       2.97305064E-06
   20.6499996       2.92898312E-06
   20.7000008       2.87803664E-06
   20.7500000       2.81992993E-06
   20.7999992       2.75438902E-06
   20.8500004       2.68114968E-06
   20.8999996       2.59996023E-06
   20.9500008       2.51058123E-06
   21.0000000       2.41278985E-06
   21.0499992       2.30637943E-06
   21.1000004       2.19116123E-06
   21.1499996       2.06696768E-06
   21.2000008       1.93365349E-06
   21.2500000       1.79109520E-06
   21.2999992       1.63919697E-06
   21.3500004       1.47788808E-06
   21.3999996       1.30712760E-06
   21.4500008       1.12690259E-06
   21.5000000       9.37233381E-07
   21.5499992       7.38171536E-07
   21.6000004       5.29801753E-07
   21.6499996       3.12244595E-07
   21.7000008       8.56562252E-08
   21.7500000      -1.49771424E-07
   21.7999992      -3.93811177E-07
   21.8500004      -6.46194678E-07
   21.8999996      -9.06616265E-07
   21.9500008      -1.17473382E-06
   22.0000000      -1.45016588E-06
   22.0499992      -1.73249271E-06
   22.1000004      -2.02125693E-06
   22.1499996      -2.31596437E-06
   22.2000008      -2.61608398E-06
   22.2500000      -2.92104755E-06
   22.2999992      -3.23025120E-06
   22.3500004      -3.54305985E-06
   22.3999996      -3.85880594E-06
   22.4500008      -4.17678848E-06
   22.5000000      -4.49627760E-06
   22.5499992      -4.81651659E-06
   22.6000004      -5.13672467E-06
   22.6499996      -5.45609419E-06
   22.7000008      -5.77380251E-06
   22.7500000      -6.08900109E-06
   22.7999992      -6.40082953E-06
   22.8500004      -6.70841337E-06
   22.8999996      -7.01086765E-06
   22.9500008      -7.30729971E-06
   23.0000000      -7.59681052E-06
   23.0499992      -7.87850058E-06
   23.1000004      -8.15147177E-06
   23.1499996      -8.41483143E-06
   23.2000008      -8.66769187E-06
   23.2500000      -8.90917909E-06
   23.2999992      -9.13843178E-06
   23.3500004      -9.35460503E-06
   23.3999996      -9.55687574E-06
   23.4500008      -9.74444447E-06
   23.5000000      -9.91653906E-06
   23.5499992      -1.00724146E-05
   23.6000004      -1.02113618E-05
   23.6499996      -1.03327029E-05
   23.7000008      -1.04358041E-05
   23.7500000      -1.05200688E-05
   23.7999992      -1.05849476E-05
   23.8500004      -1.06299321E-05
   23.8999996      -1.06545649E-05
   23.9500008      -1.06584412E-05
   24.0000000      -1.06412035E-05
   24.0499992      -1.06025554E-05
   24.1000004      -1.05422478E-05
   24.1499996      -1.04600949E-05
   24.2000008      -1.03559678E-05
   24.2500000      -1.02297909E-05
   24.2999992      -1.00815578E-05
   24.3500004      -9.91131674E-06
   24.3999996      -9.71917598E-06
   24.4500008      -9.50530921E-06
   24.5000000      -9.26994380E-06
   24.5499992      -9.01337262E-06
   24.6000004      -8.73594490E-06
   24.6499996      -8.43806811E-06
   24.7000008      -8.12021062E-06
   24.7500000      -7.78289086E-06
   24.7999992      -7.42668635E-06
   24.8500004      -7.05222419E-06
   24.8999996      -6.66018241E-06
   24.9500008      -6.25128723E-06
   25.0000000      -5.82631083E-06
   25.0499992      -5.38606855E-06
   25.1000004      -4.93141579E-06
   25.1499996      -4.46324520E-06
   25.2000008      -3.98248221E-06
   25.2500000      -3.49008837E-06
   25.2999992      -2.98704686E-06
   25.3500004      -2.47436606E-06
   25.3999996      -1.95307916E-06
   25.4500008      -1.42423096E-06
   25.5000000      -8.88883903E-07
   25.5499992      -3.48105857E-07
   25.6000004       1.97025813E-07
   25.6499996       7.45434193E-07
   25.7000008       1.29604177E-06
   25.7500000       1.84777900E-06
   25.7999992       2.39958308E-06
   25.8500004       2.95040240E-06
   25.8999996       3.49920492E-06
   25.9500008       4.04497587E-06
   26.0000000       4.58672139E-06
   26.0499992       5.12347606E-06
   26.1000004       5.65430037E-06
   26.1499996       6.17828937E-06
   26.2000008       6.69456904E-06
   26.2500000       7.20230082E-06
   26.2999992       7.70068709E-06
   26.3500004       8.18896933E-06
   26.3999996       8.66643222E-06
   26.4500008       9.13240456E-06
   26.5000000       9.58625969E-06
   26.5499992       1.00274174E-05
   26.6000004       1.04553446E-05
   26.6499996       1.08695567E-05
   26.7000008       1.12696180E-05
   26.7500000       1.16551400E-05
   26.7999992       1.20257855E-05
   26.8500004       1.23812633E-05
   26.8999996       1.27213334E-05
   26.9500008       1.30458020E-05
   27.0000000       1.33545200E-05
   27.0499992       1.36473891E-05
   27.1000004       1.39243530E-05
   27.1499996       1.41853980E-05
   27.2000008       1.44305568E-05
   27.2500000       1.46598977E-05
   27.2999992       1.48735344E-05
   27.3500004       1.50716114E-05
   27.3999996       1.52543134E-05
   27.4500008       1.54218578E-05
   27.5000000       1.55744929E-05
   27.5499992       1.57124960E-05
   27.6000004       1.58361727E-05
   27.6499996       1.59458559E-05
   27.7000008       1.60418967E-05
   27.7500000       1.61246717E-05
   27.7999992       1.61945736E-05
   27.8500004       1.62520155E-05
   27.8999996       1.62974211E-05
   27.9500008       1.63312288E-05
   28.0000000       1.63538843E-05
   28.0499992       1.63658497E-05
   28.1000004       1.63675850E-05
   28.1499996       1.63595560E-05
   28.2000008       1.63422355E-05
   28.2500000       1.63160967E-05
   28.2999992       1.62816104E-05
   28.3500004       1.62392444E-05
   28.3999996       1.61894641E-05
   28.4500008       1.61327316E-05
   28.5000000       1.60694963E-05
   28.5499992       1.60002073E-05
   28.6000004       1.59253013E-05
   28.6499996       1.58452058E-05
   28.7000008       1.57603372E-05
   28.7500000       1.56711048E-05
   28.7999992       1.55778926E-05
   28.8500004       1.54810878E-05
   28.8999996       1.53810543E-05
   28.9500008       1.52781413E-05
   29.0000000       1.51726881E-05
   29.0499992       1.50650167E-05
   29.1000004       1.49554307E-05
   29.1499996       1.48442241E-05
   29.2000008       1.47316723E-05
   29.2500000       1.46180346E-05
   29.2999992       1.45035565E-05
   29.3500004       1.43884654E-05
   29.3999996       1.42729778E-05
   29.4500008       1.41572891E-05
   29.5000000       1.40415859E-05
   29.5499992       1.39260328E-05
   29.6000004       1.38107889E-05
   29.6499996       1.36959934E-05
   29.7000008       1.35817727E-05
   29.7500000       1.34682405E-05
   29.7999992       1.33554986E-05
   29.8500004       1.32436335E-05
   29.8999996       1.31327242E-05
   29.9500008       1.30228364E-05
   30.0000000       1.29140235E-05
   30.0499992       1.28063275E-05
   30.1000004       1.26997866E-05
   30.1499996       1.25944216E-05
   30.2000008       1.24902508E-05
   30.2500000       1.23872778E-05
   30.2999992       1.22855026E-05
   30.3500004       1.21849171E-05
   30.3999996       1.20855002E-05
   30.4500008       1.19872320E-05
   30.5000000       1.18900789E-05
   30.5499992       1.17940044E-05
   30.6000004       1.16989659E-05
   30.6499996       1.16049123E-05
   30.7000008       1.15117891E-05
   30.7500000       1.14195336E-05
   30.7999992       1.13280830E-05
   30.8500004       1.12373627E-05
   30.8999996       1.11472937E-05
   30.9500008       1.10577976E-05
   31.0000000       1.09687871E-05
   31.0499992       1.08801687E-05
   31.1000004       1.07918459E-05
   31.1499996       1.07037204E-05
   31.2000008       1.06156840E-05
   31.2500000       1.05276258E-05
   31.2999992       1.04394339E-05
   31.3500004       1.03509874E-05
   31.3999996       1.02621652E-05
   31.4500008       1.01728401E-05
   31.5000000       1.00828829E-05
   31.5499992       9.99215808E-06
   31.6000004       9.90052831E-06
   31.6499996       9.80785353E-06
   31.7000008       9.71399186E-06
   31.7500000       9.61880141E-06
   31.7999992       9.52213122E-06
   31.8500004       9.42383394E-06
   31.8999996       9.32376224E-06
   31.9500008       9.22176696E-06
   32.0000000       9.11769894E-06
   32.0499992       9.01141084E-06
   32.0999985       8.90275351E-06
   32.1500015       8.79158597E-06
   32.2000008       8.67776635E-06
   32.2500000       8.56115730E-06
   32.2999992       8.44162423E-06
   32.3499985       8.31904163E-06
   32.4000015       8.19328579E-06
   32.4500008       8.06424305E-06
   32.5000000       7.93180698E-06
   32.5499992       7.79587663E-06
   32.5999985       7.65636105E-06
   32.6500015       7.51318657E-06
   32.7000008       7.36627817E-06
   32.7500000       7.21557853E-06
   32.7999992       7.06104584E-06
   32.8499985       6.90264460E-06
   32.9000015       6.74035437E-06
   32.9500008       6.57416876E-06
   33.0000000       6.40409598E-06
   33.0499992       6.23015694E-06
   33.0999985       6.05238529E-06
   33.1500015       5.87083468E-06
   33.2000008       5.68557016E-06
   33.2500000       5.49666993E-06
   33.2999992       5.30422858E-06
   33.3499985       5.10836298E-06
   33.4000015       4.90918819E-06
   33.4500008       4.70684336E-06
   33.5000000       4.50147945E-06
   33.5499992       4.29326110E-06
   33.5999985       4.08236065E-06
   33.6500015       3.86896500E-06
   33.7000008       3.65327401E-06
   33.7500000       3.43549482E-06
   33.7999992       3.21583843E-06
   33.8499985       2.99453177E-06
   33.9000015       2.77180357E-06
   33.9500008       2.54788711E-06
   34.0000000       2.32302318E-06
   34.0499992       2.09745417E-06
   34.0999985       1.87142143E-06
   34.1500015       1.64517451E-06
   34.2000008       1.41895373E-06
   34.2500000       1.19300103E-06
   34.2999992       9.67553433E-07
   34.3499985       7.42847249E-07
   34.4000015       5.19105754E-07
   34.4500008       2.96549302E-07
   34.5000000       7.53919736E-08
   34.5499992      -1.44166449E-07
   34.5999985      -3.61937111E-07
   34.6500015      -5.77738433E-07
   34.7000008      -7.91408468E-07
   34.7500000      -1.00279874E-06
   34.7999992      -1.21177231E-06
   34.8499985      -1.41820829E-06
   34.9000015      -1.62200604E-06
   34.9500008      -1.82307599E-06
   35.0000000      -2.02135448E-06
   35.0499992      -2.21679170E-06
   35.0999985      -2.40935833E-06
   35.1500015      -2.59904436E-06
   35.2000008      -2.78585776E-06
   35.2500000      -2.96982694E-06
   35.2999992      -3.15100192E-06
   35.3499985      -3.32944865E-06
   35.4000015      -3.50525283E-06
   35.4500008      -3.67852363E-06
   35.5000000      -3.84938494E-06
   35.5499992      -4.01797843E-06
   35.5999985      -4.18446598E-06
   35.6500015      -4.34902404E-06
   35.7000008      -4.51184223E-06
   35.7500000      -4.67313203E-06
   35.7999992      -4.83311169E-06
   35.8499985      -4.99202088E-06
   35.9000015      -5.15010061E-06
   35.9500008      -5.30761145E-06
   36.0000000      -5.46481624E-06
   36.0499992      -5.62199693E-06
   36.0999985      -5.77942728E-06
   36.1500015      -5.93739560E-06
   36.2000008      -6.09619110E-06
   36.2500000      -6.25610664E-06
   36.2999992      -6.41743281E-06
   36.3499985      -6.58046156E-06
   36.4000015      -6.74548301E-06
   36.4500008      -6.91278319E-06
   36.5000000      -7.08264042E-06
   36.5499992      -7.25532254E-06
   36.5999985      -7.43109513E-06
   36.6500015      -7.61021147E-06
   36.7000008      -7.79291167E-06
   36.7500000      -7.97942266E-06
   36.7999992      -8.16995998E-06
   36.8499985      -8.36472191E-06
   36.9000015      -8.56389033E-06
   36.9500008      -8.76762806E-06
   37.0000000      -8.97608425E-06
   37.0499992      -9.18938258E-06
   37.0999985      -9.40762584E-06
   37.1500015      -9.63090770E-06
   37.2000008      -9.85928637E-06
   37.2500000      -1.00928000E-05
   37.2999992      -1.03314760E-05
   37.3499985      -1.05753124E-05
   37.4000015      -1.08242857E-05
   37.4500008      -1.10783440E-05
   37.5000000      -1.13374290E-05
   37.5499992      -1.16014480E-05
   37.5999985      -1.18702901E-05
   37.6500015      -1.21438270E-05
   37.7000008      -1.24219105E-05
   37.7500000      -1.27043786E-05
   37.7999992      -1.29910422E-05
   37.8499985      -1.32817058E-05
   37.9000015      -1.35761538E-05
   37.9500008      -1.38741534E-05
   38.0000000      -1.41754699E-05
   38.0499992      -1.44798496E-05
   38.0999985      -1.47870314E-05
   38.1500015      -1.50967517E-05
   38.2000008      -1.54087284E-05
   38.2500000      -1.57226859E-05
   38.2999992      -1.60383443E-05