  -4.50000000       0.00000000    
  -4.44999981       0.00000000    
  -4.40000010       0.00000000    
  -4.34999990       0.00000000    
  -4.30000019       0.00000000    
  -4.25000000       0.00000000    
  -4.19999981       1.14752757E-37
  -4.15000010       1.85312659E-36
  -4.09999990       1.32234706E-35
  -4.05000019       5.82380940E-35
  -4.00000000       1.82310231E-34
  -3.95000005       4.44821067E-34
  -3.90000010       9.31710506E-34
  -3.84999990       1.91328860E-33
  -3.79999995       4.27667730E-33
  -3.75000000       9.98770971E-33
  -3.70000005       2.14165417E-32
  -3.65000010       3.74746982E-32
  -3.59999990       4.54463219E-32
  -3.54999995       1.23977538E-32
  -3.50000000      -1.10893445E-31
  -3.45000005      -3.53485281E-31
  -3.40000010      -6.43673952E-31
  -3.34999990      -7.11323417E-31
  -3.29999995      -6.95608362E-32
  -3.25000000       1.76207619E-30
  -3.20000005       4.64666673E-30
  -3.15000010       6.87870104E-30
  -3.09999990       4.35826737E-30
  -3.04999995      -9.10740899E-30
  -3.00000000      -3.90489037E-29
  -2.95000005      -8.42141757E-29
  -2.90000010      -1.27826113E-28
  -2.84999990      -1.29939905E-28
  -2.79999995      -2.81249478E-29
  -2.75000000       2.44231726E-28
  -2.70000005       7.14909769E-28
  -2.65000010       1.30723448E-27
  -2.59999990       1.77093322E-27
  -2.54999995       1.65005454E-27
  -2.50000000       3.45734470E-28
  -2.45000005      -2.66937915E-27
  -2.40000010      -7.46281290E-27
  -2.34999990      -1.31362505E-26
  -2.29999995      -1.73749465E-26
  -2.25000000      -1.63515720E-26
  -2.20000005      -5.36130132E-27
  -2.15000010       1.94857626E-26
  -2.09999990       5.84449788E-26
  -2.04999995       1.04623824E-25
  -2.00000000       1.40911882E-25
  -1.95000005       1.39223633E-25
  -1.89999998       6.43760419E-26
  -1.85000002      -1.15319225E-25
  -1.79999995      -4.10012329E-25
  -1.75000000      -7.84763858E-25
  -1.70000005      -1.13629122E-24
  -1.64999998      -1.28014445E-24
  -1.60000002      -9.61840944E-25
  -1.54999995       9.39946689E-26
  -1.50000000       2.08699168E-24
  -1.45000005       4.99869010E-24
  -1.39999998       8.42476704E-24
  -1.35000002       1.14259434E-23
  -1.29999995       1.24658719E-23
  -1.25000000       9.52093660E-24
  -1.20000005       4.45114815E-25
  -1.14999998      -1.63580091E-23
  -1.10000002      -4.09730757E-23
  -1.04999995      -7.08453134E-23
  -1.00000000      -9.97490192E-23
 -0.949999988      -1.17251413E-22
 -0.899999976      -1.09169830E-22
 -0.850000024      -5.95210825E-23
 -0.800000012       4.56887947E-23
 -0.750000000       2.12838736E-22
 -0.699999988       4.33788680E-22
 -0.649999976       6.78974575E-22
 -0.600000024       8.92526063E-22
 -0.550000012       9.92016746E-22
 -0.500000000       8.75613088E-22
 -0.449999988       4.38846679E-22
 -0.400000006      -3.98219938E-22
 -0.349999994      -1.65510601E-21
 -0.300000012      -3.25122714E-21
 -0.250000000      -4.97088979E-21
 -0.200000003      -6.44459323E-21
 -0.150000006      -7.15980962E-21
 -0.100000001      -6.51340917E-21
  -5.00000007E-02  -3.91322992E-21
   2.49800181E-16   1.07237302E-21
   5.00000007E-02   8.53043982E-21
  0.100000001       1.80127916E-20
  0.150000006       2.83808544E-20
  0.200000003       3.77381218E-20
  0.250000000       4.35044043E-20
  0.300000012       4.26764708E-20
  0.349999994       3.22960327E-20
  0.400000006       1.01082141E-20
  0.449999988      -2.46548516E-20
  0.500000000      -7.04833685E-20
  0.550000012      -1.22956663E-19
  0.600000024      -1.74460443E-19
  0.649999976      -2.14444945E-19
  0.699999988      -2.30371016E-19
  0.750000000      -2.09403163E-19
  0.800000012      -1.40778334E-19
  0.850000024      -1.86196611E-20
  0.899999976       1.55198237E-19
  0.949999988       3.68665326E-19
   1.00000000       5.98342854E-19
   1.04999995       8.09753882E-19
   1.10000002       9.59912495E-19
   1.14999998       1.00218628E-18
   1.20000005       8.93309773E-19
   1.25000000       6.01919841E-19
   1.29999995       1.17528200E-19
   1.35000002      -5.41536742E-19
   1.39999998      -1.32290106E-18
   1.45000005      -2.13928655E-18
   1.50000000      -2.87333945E-18
   1.54999995      -3.38880884E-18
   1.60000002      -3.54779915E-18
   1.64999998      -3.23267746E-18
   1.70000005      -2.37007884E-18
   1.75000000      -9.53425331E-19
   1.79999995       9.40219806E-19
   1.85000002       3.14319100E-18
   1.89999998       5.40368722E-18
   1.95000005       7.40774897E-18
   2.00000000       8.81665593E-18
   2.04999995       9.31695958E-18
   2.09999990       8.67754649E-18
   2.15000010       6.80557969E-18
   2.20000005       3.79135463E-18
   2.25000000      -6.83839454E-20
   2.29999995      -4.27799077E-18
   2.34999990      -8.18769592E-18
   2.40000010      -1.10771809E-17
   2.45000005      -1.22732444E-17
   2.50000000      -1.12900500E-17
   2.54999995      -7.97345200E-18
   2.59999990      -2.62539123E-18
   2.65000010       3.91847947E-18
   2.70000005       1.02846385E-17
   2.75000000       1.46523730E-17
   2.79999995       1.49521713E-17
   2.84999990       9.16983062E-18
   2.90000010      -4.26112911E-18
   2.95000005      -2.60155631E-17
   3.00000000      -5.54355337E-17
   3.04999995      -9.01596824E-17
   3.09999990      -1.25899430E-16
   3.15000010      -1.56437747E-16
   3.20000005      -1.73915227E-16
   3.25000000      -1.69445540E-16
   3.29999995      -1.34069937E-16
   3.34999990      -6.00188621E-17
   3.40000010       5.78013033E-17
   3.45000005       2.20220400E-16
   3.50000000       4.22289970E-16
   3.54999995       6.52045592E-16
   3.59999990       8.89765018E-16
   3.65000010       1.10793911E-15
   3.70000005       1.27213803E-15
   3.75000000       1.34290520E-15
   3.79999995       1.27872001E-15
   3.84999990       1.03998663E-15
   3.90000010       5.93859034E-16
   3.95000005      -8.03690735E-17
   4.00000000      -9.85736816E-16
   4.05000019      -2.10245394E-15
   4.09999990      -3.38367703E-15
   4.15000010      -4.75284756E-15
   4.19999981      -6.10317096E-15
   4.25000000      -7.29976721E-15
   4.30000019      -8.18487429E-15
   4.34999990      -8.58631708E-15
   4.40000010      -8.32922734E-15
   4.44999981      -7.25069266E-15
   4.50000000      -5.21681112E-15
   4.55000019      -2.14120315E-15
   4.59999990       1.99608015E-15
   4.65000010       7.13070197E-15
   4.69999981       1.30987369E-14
   4.75000000       1.96255857E-14
   4.80000019       2.63207306E-14
   4.84999990       3.26798017E-14
   4.90000010       3.80952797E-14
   4.94999981       4.18766008E-14
   5.00000000       4.32802733E-14
   5.05000019       4.15496020E-14
   5.09999990       3.59634875E-14
   5.15000010       2.58924589E-14
   5.19999981       1.08601143E-14
   5.25000000      -9.39329977E-15
   5.30000019      -3.48483381E-14
   5.34999990      -6.51489157E-14
   5.40000010      -9.95542489E-14
   5.44999981      -1.36904431E-13
   5.50000000      -1.75603713E-13
   5.55000019      -2.13625883E-13
   5.59999990      -2.48543861E-13
   5.65000010      -2.77586656E-13
   5.69999981      -2.97723868E-13
   5.75000000      -3.05778325E-13
   5.80000019      -2.98563312E-13
   5.84999990      -2.73042792E-13
   5.90000010      -2.26507411E-13
   5.94999981      -1.56760564E-13
   6.00000000      -6.23051754E-14
   6.05000019       5.74774129E-14
   6.09999990       2.02168211E-13
   6.15000010       3.70181343E-13
   6.19999981       5.58676640E-13
   6.25000000       7.63524660E-13
   6.30000019       9.79333151E-13
   6.34999990       1.19954513E-12
   6.40000010       1.41661205E-12
   6.44999981       1.62224823E-12
   6.50000000       1.80776412E-12
   6.55000019       1.96448066E-12
   6.59999990       2.08420759E-12
   6.65000010       2.15978949E-12
   6.69999981       2.18569390E-12
   6.75000000       2.15862593E-12
   6.80000019       2.07815254E-12
   6.84999990       1.94730798E-12
   6.90000010       1.77315367E-12
   6.94999981       1.56726791E-12
   7.00000000       1.34613186E-12
   7.05000019       1.13139099E-12
   7.09999990       9.49953224E-13
   7.15000010       8.33910252E-13
   7.19999981       8.20249034E-13
   7.25000000       9.50349174E-13
   7.30000019       1.26922940E-12
   7.34999990       1.82456199E-12
   7.40000010       2.66543124E-12
   7.44999981       3.84084735E-12
   7.50000000       5.39803445E-12
   7.55000019       7.38046776E-12
   7.59999990       9.82572964E-12
   7.65000010       1.27631915E-11
   7.69999981       1.62115061E-11
   7.75000000       2.01759928E-11
   7.80000019       2.46459797E-11
   7.84999990       2.95919990E-11
   7.90000010       3.49630186E-11
   7.94999981       4.06836335E-11
   8.00000000       4.66513009E-11
   8.05000019       5.27336057E-11
   8.10000038       5.87655757E-11
   8.14999962       6.45470413E-11
   8.19999981       6.98401059E-11
   8.25000000       7.43665893E-11
   8.30000019       7.78054773E-11
   8.35000038       7.97904381E-11
   8.39999962       7.99071920E-11
   8.44999981       7.76907982E-11
   8.50000000       7.26226995E-11
   8.55000019       6.41275921E-11
   8.60000038       5.15697970E-11
   8.64999962       3.42493880E-11
   8.69999981       1.13974810E-11
   8.75000000      -1.78287905E-11
   8.80000019      -5.43526751E-11
   8.85000038      -9.91842233E-11
   8.89999962      -1.53428659E-10
   8.94999981      -2.18295354E-10
   9.00000000      -2.95108216E-10
   9.05000019      -3.85317167E-10
   9.10000038      -4.90511909E-10
   9.14999962      -6.12436046E-10
   9.19999981      -7.53003992E-10
   9.25000000      -9.14319620E-10
   9.30000019      -1.09869469E-09
   9.35000038      -1.30867162E-09
   9.39999962      -1.54704749E-09
   9.44999981      -1.81689719E-09
   9.50000000      -2.12160245E-09
   9.55000019      -2.46487897E-09
   9.60000038      -2.85080759E-09
   9.64999962      -3.28386585E-09
   9.69999981      -3.76895937E-09
   9.75000000      -4.31145697E-09
   9.80000019      -4.91722307E-09
   9.85000038      -5.59265700E-09
   9.89999962      -6.34472519E-09
   9.94999981      -7.18099979E-09
   10.0000000      -8.10968714E-09
   10.0500002      -9.13967479E-09
   10.1000004      -1.02805506E-08
   10.1499996      -1.15426495E-08
   10.1999998      -1.29370719E-08
   10.2500000      -1.44757246E-08
   10.3000002      -1.61713398E-08
   10.3500004      -1.80374986E-08
   10.3999996      -2.00886543E-08
   10.4499998      -2.23401599E-08
   10.5000000      -2.48082479E-08
   10.5500002      -2.75100920E-08
   10.6000004      -3.04637595E-08
   10.6499996      -3.36882522E-08
   10.6999998      -3.72034741E-08
   10.7500000      -4.10302334E-08
   10.8000002      -4.51902267E-08
   10.8500004      -4.97059958E-08
   10.8999996      -5.46009531E-08
   10.9499998      -5.98992855E-08
   11.0000000      -6.56259402E-08
   11.0500002      -7.18065962E-08
   11.1000004      -7.84675720E-08
   11.1499996      -8.56358042E-08
   11.1999998      -9.33387483E-08
   11.2500000      -1.01604314E-07
   11.3000002      -1.10460803E-07
   11.3500004      -1.19936772E-07
   11.3999996      -1.30061025E-07
   11.4499998      -1.40862426E-07
   11.5000000      -1.52369836E-07
   11.5500002      -1.64612032E-07
   11.6000004      -1.77617537E-07
   11.6499996      -1.91414486E-07
   11.6999998      -2.06030549E-07
   11.7500000      -2.21492840E-07
   11.8000002      -2.37827678E-07
   11.8500004      -2.55060542E-07
   11.8999996      -2.73215875E-07
   11.9499998      -2.92316997E-07
   12.0000000      -3.12385879E-07
   12.0500002      -3.33443239E-07
   12.1000004      -3.55508035E-07
   12.1499996      -3.78597690E-07
   12.1999998      -4.02727750E-07
   12.2500000      -4.27911800E-07
   12.3000002      -4.54161466E-07
   12.3500004      -4.81486040E-07
   12.3999996      -5.09892800E-07
   12.4499998      -5.39386349E-07
   12.5000000      -5.69969131E-07
   12.5500002      -6.01640750E-07
   12.6000004      -6.34398532E-07
   12.6499996      -6.68236908E-07
   12.6999998      -7.03147634E-07
   12.7500000      -7.39119855E-07
   12.8000002      -7.76139984E-07
   12.8500004      -8.14191594E-07
   12.8999996      -8.53255642E-07
   12.9499998      -8.93310300E-07
   13.0000000      -9.34331069E-07
   13.0500002      -9.76290835E-07
   13.1000004      -1.01916009E-06
   13.1499996      -1.06290702E-06
   13.1999998      -1.10749693E-06
   13.2500000      -1.15289345E-06
   13.3000002      -1.19905792E-06
   13.3500004      -1.24594965E-06
   13.3999996      -1.29352622E-06
   13.4499998      -1.34174331E-06
   13.5000000      -1.39055555E-06
   13.5500002      -1.43991610E-06
   13.6000004      -1.48977654E-06
   13.6499996      -1.54008808E-06
   13.6999998      -1.59080093E-06
   13.7500000      -1.64186486E-06
   13.8000002      -1.69322868E-06
   13.8500004      -1.74484194E-06
   13.8999996      -1.79665324E-06
   13.9499998      -1.84861199E-06
   14.0000000      -1.90066783E-06
   14.0500002      -1.95277062E-06
   14.1000004      -2.00487125E-06
   14.1499996      -2.05692140E-06
   14.1999998      -2.10887401E-06
   14.2500000      -2.16068224E-06
   14.3000002      -2.21230175E-06
   14.3500004      -2.26368866E-06
   14.3999996      -2.31480135E-06
   14.4499998      -2.36559913E-06
   14.5000000      -2.41604334E-06
   14.5500002      -2.46609761E-06
   14.6000004      -2.51572646E-06
   14.6499996      -2.56489739E-06
   14.6999998      -2.61357877E-06
   14.7500000      -2.66174220E-06
   14.8000002      -2.70936016E-06
   14.8500004      -2.75640832E-06
   14.8999996      -2.80286372E-06
   14.9499998      -2.84870612E-06
   15.0000000      -2.89391664E-06
   15.0500002      -2.93847893E-06
   15.1000004      -2.98237910E-06
   15.1499996      -3.02560511E-06
   15.1999998      -3.06814673E-06
   15.2500000      -3.10999644E-06
   15.3000002      -3.15114858E-06
   15.3500004      -3.19159949E-06
   15.3999996      -3.23134759E-06
   15.4499998      -3.27039334E-06
   15.5000000      -3.30873968E-06
   15.5500002      -3.34639162E-06
   15.6000004      -3.38335531E-06
   15.6499996      -3.41964005E-06
   15.6999998      -3.45525655E-06
   15.7500000      -3.49021752E-06
   15.8000002      -3.52453776E-06
   15.8500004      -3.55823408E-06
   15.8999996      -3.59132514E-06
   15.9499998      -3.62383116E-06
   16.0000000      -3.65577512E-06
   16.0499992      -3.68718065E-06
   16.1000004      -3.71807391E-06
   16.1499996      -3.74848241E-06
   16.2000008      -3.77843526E-06
   16.2500000      -3.80796337E-06
   16.2999992      -3.83709903E-06
   16.3500004      -3.86587590E-06
   16.3999996      -3.89432853E-06
   16.4500008      -3.92249331E-06
   16.5000000      -3.95040661E-06
   16.5499992      -3.97810663E-06
   16.6000004      -4.00563249E-06
   16.6499996      -4.03302192E-06
   16.7000008      -4.06031586E-06
   16.7500000      -4.08755295E-06
   16.7999992      -4.11477367E-06
   16.8500004      -4.14201759E-06
   16.8999996      -4.16932335E-06
   16.9500008      -4.19673097E-06
   17.0000000      -4.22427820E-06
   17.0499992      -4.25200187E-06
   17.1000004      -4.27993882E-06
   17.1499996      -4.30812406E-06
   17.2000008      -4.33659125E-06
   17.2500000      -4.36537266E-06
   17.2999992      -4.39449832E-06
   17.3500004      -4.42399732E-06
   17.3999996      -4.45389605E-06
   17.4500008      -4.48421952E-06
   17.5000000      -4.51499091E-06
   17.5499992      -4.54622977E-06
   17.6000004      -4.57795522E-06
   17.6499996      -4.61018317E-06
   17.7000008      -4.64292771E-06
   17.7500000      -4.67620112E-06
   17.7999992      -4.71001385E-06
   17.8500004      -4.74437320E-06
   17.8999996      -4.77928643E-06
   17.9500008      -4.81475718E-06
   18.0000000      -4.85078954E-06
   18.0499992      -4.88738533E-06
   18.1000004      -4.92454546E-06
   18.1499996      -4.96227040E-06
   18.2000008      -5.00055967E-06
   18.2500000      -5.03941283E-06
   18.2999992      -5.07882987E-06
   18.3500004      -5.11881035E-06
   18.3999996      -5.15935608E-06
   18.4500008      -5.20046842E-06
   18.5000000      -5.24215147E-06
   18.5499992      -5.28441024E-06
   18.6000004      -5.32725244E-06
   18.6499996      -5.37068900E-06
   18.7000008      -5.41473264E-06
   18.7500000      -5.45940020E-06
   18.7999992      -5.50471214E-06
   18.8500004      -5.55069164E-06
   18.8999996      -5.59736873E-06
   18.9500008      -5.64477614E-06
   19.0000000      -5.69295162E-06
   19.0499992      -5.74193928E-06
   19.1000004      -5.79178823E-06
   19.1499996      -5.84255304E-06
   19.2000008      -5.89429419E-06
   19.2500000      -5.94707853E-06
   19.2999992      -6.00097974E-06
   19.3500004      -6.05607738E-06
   19.3999996      -6.11245650E-06
   19.4500008      -6.17021033E-06
   19.5000000      -6.22943844E-06
   19.5499992      -6.29024635E-06
   19.6000004      -6.35274637E-06
   19.6499996      -6.41705810E-06
   19.7000008      -6.48330615E-06
   19.7500000      -6.55162330E-06
   19.7999992      -6.62214643E-06
   19.8500004      -6.69502015E-06
   19.8999996      -6.77039316E-06
   19.9500008      -6.84842007E-06
   20.0000000      -6.92926187E-06
   20.0499992      -7.01308318E-06
   20.1000004      -7.10005224E-06
   20.1499996      -7.19034279E-06
   20.2000008      -7.28413124E-06
   20.2500000      -7.38159770E-06
   20.2999992      -7.48292359E-06
   20.3500004      -7.58829310E-06
   20.3999996      -7.69789131E-06
   20.4500008      -7.81190556E-06
   20.5000000      -7.93052186E-06
   20.5499992      -8.05392392E-06
   20.6000004      -8.18229819E-06
   20.6499996      -8.31582474E-06
   20.7000008      -8.45468458E-06
   20.7500000      -8.59905140E-06
   20.7999992      -8.74909711E-06
   20.8500004      -8.90498723E-06
   20.8999996      -9.06688092E-06
   20.9500008      -9.23492826E-06
   21.0000000      -9.40927566E-06
   21.0499992      -9.59005592E-06
   21.1000004      -9.77739546E-06
   21.1499996      -9.97140523E-06
   21.2000008      -1.01721898E-05
   21.2500000      -1.03798366E-05
   21.2999992      -1.05944200E-05
   21.3500004      -1.08160029E-05
   21.3999996      -1.10446290E-05
   21.4500008      -1.12803255E-05
   21.5000000      -1.15231041E-05
   21.5499992      -1.17729587E-05
   21.6000004      -1.20298619E-05
   21.6499996      -1.22937690E-05
   21.7000008      -1.25646129E-05
   21.7500000      -1.28423080E-05
   21.7999992      -1.31267452E-05
   21.8500004      -1.34177944E-05
   21.8999996      -1.37153038E-05
   21.9500008      -1.40190959E-05
   22.0000000      -1.43289735E-05
   22.0499992      -1.46447164E-05
   22.1000004      -1.49660791E-05
   22.1499996      -1.52927933E-05
   22.2000008      -1.56245696E-05
   22.2500000      -1.59610954E-05
   22.2999992      -1.63020341E-05
   22.3500004      -1.66470272E-05
   22.3999996      -1.69956966E-05
   22.4500008      -1.73476437E-05
   22.5000000      -1.77024449E-05
   22.5499992      -1.80596635E-05
   22.6000004      -1.84188430E-05
   22.6499996      -1.87795067E-05
   22.7000008      -1.91411618E-05
   22.7500000      -1.95033044E-05
   22.7999992      -1.98654161E-05
   22.8500004      -2.02269603E-05
   22.8999996      -2.05873966E-05
   22.9500008      -2.09461723E-05
   23.0000000      -2.13027270E-05
   23.0499992      -2.16564895E-05
   23.1000004      -2.20068923E-05
   23.1499996      -2.23533589E-05
   23.2000008      -2.26953107E-05
   23.2500000      -2.30321730E-05
   23.2999992      -2.33633709E-05
   23.3500004      -2.36883370E-05
   23.3999996      -2.40065001E-05
   23.4500008      -2.43173054E-05
   23.5000000      -2.46202035E-05
   23.5499992      -2.49146524E-05
   23.6000004      -2.52001264E-05
   23.6499996      -2.54761144E-05
   23.7000008      -2.57421125E-05
   23.7500000      -2.59976423E-05
   23.7999992      -2.62422382E-05
   23.8500004      -2.64754563E-05
   23.8999996      -2.66968709E-05
   23.9500008      -2.69060802E-05
   24.0000000      -2.71027020E-05
   24.0499992      -2.72863836E-05
   24.1000004      -2.74567919E-05
   24.1499996      -2.76136216E-05
   24.2000008      -2.77565923E-05
   24.2500000      -2.78854532E-05
   24.2999992      -2.79999786E-05
   24.3500004      -2.80999720E-05
   24.3999996      -2.81852663E-05
   24.4500008      -2.82557212E-05
   24.5000000      -2.83112258E-05
   24.5499992      -2.83517002E-05
   24.6000004      -2.83770896E-05
   24.6499996      -2.83873724E-05
   24.7000008      -2.83825539E-05
   24.7500000      -2.83626632E-05
   24.7999992      -2.83277659E-05
   24.8500004      -2.82779474E-05
   24.8999996      -2.82133242E-05
   24.9500008      -2.81340381E-05
   25.0000000      -2.80402528E-05
   25.0499992      -2.79321630E-05
   25.1000004      -2.78099797E-05
   25.1499996      -2.76739411E-05
   25.2000008      -2.75243037E-05
   25.2500000      -2.73613477E-05
   25.2999992      -2.71853696E-05
   25.3500004      -2.69966822E-05
   25.3999996      -2.67956220E-05
   25.4500008      -2.65825311E-05
   25.5000000      -2.63577695E-05
   25.5499992      -2.61217119E-05
   25.6000004      -2.58747368E-05
   25.6499996      -2.56172407E-05
   25.7000008      -2.53496182E-05
   25.7500000      -2.50722751E-05
   25.7999992      -2.47856242E-05
   25.8500004      -2.44900784E-05
   25.8999996      -2.41860525E-05
   25.9500008      -2.38739558E-05
   26.0000000      -2.35542084E-05
   26.0499992      -2.32272178E-05
   26.1000004      -2.28933914E-05
   26.1499996      -2.25531276E-05
   26.2000008      -2.22068211E-05
   26.2500000      -2.18548576E-05
   26.2999992      -2.14976153E-05
   26.3500004      -2.11354618E-05
   26.3999996      -2.07687499E-05
   26.4500008      -2.03978234E-05
   26.5000000      -2.00230133E-05
   26.5499992      -1.96446381E-05
   26.6000004      -1.92629996E-05
   26.6499996      -1.88783870E-05
   26.7000008      -1.84910732E-05
   26.7500000      -1.81013147E-05
   26.7999992      -1.77093552E-05
   26.8500004      -1.73154203E-05
   26.8999996      -1.69197210E-05
   26.9500008      -1.65224519E-05
   27.0000000      -1.61237931E-05
   27.0499992      -1.57239065E-05
   27.1000004      -1.53229412E-05
   27.1499996      -1.49210300E-05
   27.2000008      -1.45182939E-05
   27.2500000      -1.41148366E-05
   27.2999992      -1.37107518E-05
   27.3500004      -1.33061185E-05
   27.3999996      -1.29010059E-05
   27.4500008      -1.24954668E-05
   27.5000000      -1.20895502E-05
   27.5499992      -1.16832880E-05
   27.6000004      -1.12767093E-05
   27.6499996      -1.08698314E-05
   27.7000008      -1.04626642E-05
   27.7500000      -1.00552115E-05
   27.7999992      -9.64746960E-06
   27.8500004      -9.23943026E-06
   27.8999996      -8.83107987E-06
   27.9500008      -8.42240206E-06
   28.0000000      -8.01337410E-06
   28.0499992      -7.60397143E-06
   28.1000004      -7.19416994E-06
   28.1499996      -6.78393963E-06
   28.2000008      -6.37325138E-06
   28.2500000      -5.96207246E-06
   28.2999992      -5.55037241E-06
   28.3500004      -5.13812120E-06
   28.3999996      -4.72528336E-06
   28.4500008      -4.31182934E-06
   28.5000000      -3.89772958E-06
   28.5499992      -3.48295202E-06
   28.6000004      -3.06746642E-06
   28.6499996      -2.65124413E-06
   28.7000008      -2.23425855E-06
   28.7500000      -1.81648124E-06
   28.7999992      -1.39788540E-06
   28.8500004      -9.78447360E-07
   28.8999996      -5.58142403E-07
   28.9500008      -1.36946156E-07
   29.0000000       2.85162315E-07
   29.0499992       7.08207665E-07
   29.1000004       1.13220983E-06
   29.1499996       1.55719090E-06
   29.2000008       1.98316911E-06
   29.2500000       2.41016687E-06
   29.2999992       2.83820305E-06
   29.3500004       3.26729537E-06
   29.3999996       3.69746635E-06
   29.4500008       4.12873305E-06
   29.5000000       4.56111366E-06
   29.5499992       4.99463022E-06
   29.6000004       5.42929911E-06
   29.6499996       5.86514034E-06
   29.7000008       6.30217119E-06
   29.7500000       6.74041030E-06
   29.7999992       7.17987496E-06
   29.8500004       7.62058517E-06
   29.8999996       8.06255503E-06
   29.9500008       8.50580363E-06
   30.0000000       8.95034555E-06
   30.0499992       9.39619440E-06
   30.1000004       9.84336748E-06
   30.1499996       1.02918748E-05
   30.2000008       1.07417309E-05
   30.2500000       1.11929430E-05
   30.2999992       1.16455221E-05
   30.3500004       1.20994746E-05
   30.3999996       1.25548040E-05
   30.4500008       1.30115122E-05
   30.5000000       1.34696029E-05
   30.5499992       1.39290705E-05
   30.6000004       1.43899097E-05
   30.6499996       1.48521149E-05
   30.7000008       1.53156743E-05
   30.7500000       1.57805734E-05
   30.7999992       1.62467913E-05
   30.8500004       1.67143098E-05
   30.8999996       1.71831016E-05
   30.9500008       1.76531375E-05
   31.0000000       1.81243850E-05
   31.0499992       1.85968056E-05
   31.1000004       1.90703577E-05
   31.1499996       1.95449975E-05
   31.2000008       2.00206705E-05
   31.2500000       2.04973221E-05
   31.2999992       2.09748941E-05
   31.3500004       2.14533175E-05
   31.3999996       2.19325248E-05
   31.4500008       2.24124415E-05
   31.5000000       2.28929912E-05
   31.5499992       2.33740902E-05
   31.6000004       2.38556458E-05
   31.6499996       2.43375689E-05
   31.7000008       2.48197630E-05
   31.7500000       2.53021262E-05
   31.7999992       2.57845513E-05
   31.8500004       2.62669291E-05
   31.8999996       2.67491523E-05
   31.9500008       2.72310990E-05
   32.0000000       2.77126546E-05
   32.0499992       2.81936973E-05
   32.0999985       2.86741015E-05
   32.1500015       2.91537399E-05
   32.2000008       2.96324852E-05
   32.2500000       3.01102082E-05
   32.2999992       3.05867798E-05
   32.3499985       3.10620708E-05
   32.4000015       3.15359430E-05
   32.4500008       3.20082763E-05
   32.5000000       3.24789362E-05
   32.5499992       3.29478025E-05
   32.5999985       3.34147444E-05
   32.6500015       3.38796381E-05
   32.7000008       3.43423708E-05
   32.7500000       3.48028261E-05
   32.7999992       3.52608949E-05
   32.8499985       3.57164645E-05
   32.9000015       3.61694365E-05
   32.9500008       3.66197237E-05
   33.0000000       3.70672315E-05
   33.0499992       3.75118798E-05
   33.0999985       3.79535995E-05
   33.1500015       3.83923179E-05
   33.2000008       3.88279768E-05
   33.2500000       3.92605289E-05
   33.2999992       3.96899304E-05
   33.3499985       4.01161487E-05
   33.4000015       4.05391620E-05
   33.4500008       4.09589520E-05
   33.5000000       4.13755115E-05
   33.5499992       4.17888477E-05
   33.5999985       4.21989680E-05
   33.6500015       4.26058941E-05
   33.7000008       4.30096588E-05
   33.7500000       4.34102913E-05
   33.7999992       4.38078459E-05
   33.8499985       4.42023702E-05
   33.9000015       4.45939258E-05
   33.9500008       4.49825893E-05
   34.0000000       4.53684224E-05
   34.0499992       4.57515125E-05
   34.0999985       4.61319469E-05
   34.1500015       4.65098092E-05
   34.2000008       4.68851940E-05
   34.2500000       4.72582033E-05
   34.2999992       4.76289351E-05
   34.3499985       4.79974915E-05
   34.4000015       4.83639778E-05
   34.4500008       4.87284997E-05
   34.5000000       4.90911480E-05
   34.5499992       4.94520318E-05
   34.5999985       4.98112531E-05
   34.6500015       5.01688992E-05
   34.7000008       5.05250719E-05
   34.7500000       5.08798548E-05
   34.7999992       5.12333354E-05
   34.8499985       5.15855936E-05
   34.9000015       5.19366949E-05
   34.9500008       5.22867049E-05
   35.0000000       5.26356780E-05
   35.0499992       5.29836725E-05
   35.0999985       5.33307211E-05
   35.1500015       5.36768603E-05
   35.2000008       5.40221117E-05
   35.2500000       5.43664864E-05
   35.2999992       5.47099844E-05
   35.3499985       5.50526056E-05
   35.4000015       5.53943246E-05
   35.4500008       5.57351159E-05
   35.5000000       5.60749395E-05
   35.5499992       5.64137554E-05
   35.5999985       5.67514908E-05
   35.6500015       5.70880838E-05
   35.7000008       5.74234473E-05
   35.7500000       5.77574938E-05
   35.7999992       5.80901287E-05
   35.8499985       5.84212394E-05
   35.9000015       5.87507093E-05
   35.9500008       5.90784075E-05
   36.0000000       5.94041994E-05
   36.0499992       5.97279468E-05
   36.0999985       6.00494968E-05
   36.1500015       6.03686931E-05
   36.2000008       6.06853682E-05
   36.2500000       6.09993622E-05
   36.2999992       6.13105003E-05
   36.3499985       6.16186080E-05
   36.4000015       6.19234997E-05
   36.4500008       6.22249936E-05
   36.5000000       6.25229004E-05
   36.5499992       6.28170383E-05
   36.5999985       6.31072180E-05
   36.6500015       6.33932577E-05
   36.7000008       6.36749537E-05
   36.7500000       6.39521386E-05
   36.7999992       6.42246086E-05
   36.8499985       6.44922038E-05
   36.9000015       6.47547276E-05
   36.9500008       6.50120201E-05
   37.0000000       6.52639064E-05
   37.0499992       6.55102194E-05
   37.0999985       6.57508062E-05
   37.1500015       6.59855214E-05
   37.2000008       6.62142120E-05
   37.2500000       6.64367399E-05
   37.2999992       6.66529741E-05
   37.3499985       6.68628054E-05
   37.4000015       6.70661175E-05
   37.4500008       6.72628084E-05
   37.5000000       6.74527910E-05
   37.5499992       6.76359778E-05
   37.5999985       6.78123106E-05
   37.6500015       6.79817167E-05
   37.7000008       6.81441525E-05
   37.7500000       6.82995815E-05
   37.7999992       6.84479819E-05
   37.8499985       6.85893319E-05
   37.9000015       6.87236316E-05
   37.9500008       6.88508953E-05
   38.0000000       6.89711378E-05
   38.0499992       6.90843954E-05
   38.0999985       6.91907044E-05
   38.1500015       6.92901303E-05
   38.2000008       6.93827387E-05
   38.2500000       6.94685950E-05
   38.2999992       6.95477938E-05