  -4.50000000       0.00000000    
  -4.44999981       0.00000000    
  -4.40000010       0.00000000    
  -4.34999990       0.00000000    
  -4.30000019       0.00000000    
  -4.25000000       0.00000000    
  -4.19999981       1.79910524E-38
  -4.15000010       8.76244710E-37
  -4.09999990       1.38918221E-35
  -4.05000019       1.17770655E-34
  -4.00000000       6.63112894E-34
  -3.95000005       2.76013494E-33
  -3.90000010       8.99236501E-33
  -3.84999990       2.36069843E-32
  -3.79999995       5.02877130E-32
  -3.75000000       8.50190160E-32
  -3.70000005       1.03634156E-31
  -3.65000010       5.03118106E-32
  -3.59999990      -1.57103727E-31
  -3.54999995      -5.84971457E-31
  -3.50000000      -1.19963421E-30
  -3.45000005      -1.77569161E-30
  -3.40000010      -1.87633988E-30
  -3.34999990      -9.79527876E-31
  -3.29999995       1.29675750E-30
  -3.25000000       5.14078136E-30
  -3.20000005       1.10720215E-29
  -3.15000010       2.11071991E-29
  -3.09999990       3.94214357E-29
  -3.04999995       6.94363768E-29
  -3.00000000       1.02975827E-28
  -2.95000005       9.92592877E-29
  -2.90000010      -3.96912104E-29
  -2.84999990      -4.74199726E-28
  -2.79999995      -1.37099586E-27
  -2.75000000      -2.73898303E-27
  -2.70000005      -4.14065655E-27
  -2.65000010      -4.35278965E-27
  -2.59999990      -1.19815674E-27
  -2.54999995       8.07070342E-27
  -2.50000000       2.53948177E-26
  -2.45000005       4.92987375E-26
  -2.40000010       7.14161386E-26
  -2.34999990       7.35625490E-26
  -2.29999995       2.79999553E-26
  -2.25000000      -9.56395425E-26
  -2.20000005      -3.13825829E-25
  -2.15000010      -6.02906619E-25
  -2.09999990      -8.68806042E-25
  -2.04999995      -9.26198236E-25
  -2.00000000      -5.08417008E-25
  -1.95000005       6.67520934E-25
  -1.89999998       2.76350814E-24
  -1.85000002       5.61549965E-24
  -1.79999995       8.50476385E-24
  -1.75000000       9.99783063E-24
  -1.70000005       7.99206264E-24
  -1.64999998       1.18842598E-25
  -1.60000002      -1.53866326E-23
  -1.54999995      -3.83644294E-23
  -1.50000000      -6.51833242E-23
  -1.45000005      -8.74600746E-23
  -1.39999998      -9.17843260E-23
  -1.35000002      -6.13068743E-23
  -1.29999995       2.00979955E-23
  -1.25000000       1.60910434E-22
  -1.20000005       3.53035627E-22
  -1.14999998       5.62873940E-22
  -1.10000002       7.25692609E-22
  -1.04999995       7.47490919E-22
  -1.00000000       5.18482856E-22
 -0.949999988      -5.92290084E-23
 -0.899999976      -1.03053446E-21
 -0.850000024      -2.33844222E-21
 -0.800000012      -3.77893505E-21
 -0.750000000      -4.97624506E-21
 -0.699999988      -5.39788785E-21
 -0.649999976      -4.42679316E-21
 -0.600000024      -1.49948044E-21
 -0.550000012       3.69596778E-21
 -0.500000000       1.09892471E-20
 -0.449999988       1.95144524E-20
 -0.400000006       2.75832326E-20
 -0.349999994       3.27223215E-20
 -0.300000012       3.19441481E-20
 -0.250000000       2.22871651E-20
 -0.200000003       1.60681106E-21
 -0.150000006      -3.04765035E-20
 -0.100000001      -7.16469790E-20
  -5.00000007E-02  -1.16224576E-19
   2.49800181E-16  -1.55036511E-19
   5.00000007E-02  -1.76087223E-19
  0.100000001      -1.66191209E-19
  0.150000006      -1.13565048E-19
  0.200000003      -1.11429266E-20
  0.250000000       1.39878620E-19
  0.300000012       3.26998998E-19
  0.349999994       5.24755988E-19
  0.400000006       6.95333089E-19
  0.449999988       7.92108310E-19
  0.500000000       7.66395555E-19
  0.550000012       5.77005471E-19
  0.600000024       2.01504015E-19
  0.649999976      -3.52690374E-19
  0.699999988      -1.03980584E-18
  0.750000000      -1.77246049E-18
  0.800000012      -2.42601196E-18
  0.850000024      -2.85198578E-18
  0.899999976      -2.90057086E-18
  0.949999988      -2.45023698E-18
   1.00000000      -1.44041706E-18
   1.04999995       9.86857425E-20
   1.10000002       2.02630754E-18
   1.14999998       4.08853250E-18
   1.20000005       5.93862203E-18
   1.25000000       7.18287744E-18
   1.29999995       7.45003362E-18
   1.35000002       6.47658390E-18
   1.39999998       4.19470733E-18
   1.45000005       8.04735842E-19
   1.50000000      -3.18835568E-18
   1.54999995      -6.99396593E-18
   1.60000002      -9.62460790E-18
   1.64999998      -1.00587627E-17
   1.70000005      -7.46843922E-18
   1.75000000      -1.48567139E-18
   1.79999995       7.53416616E-18
   1.85000002       1.83077205E-17
   1.89999998       2.85401597E-17
   1.95000005       3.50225194E-17
   2.00000000       3.39548675E-17
   2.04999995       2.15125805E-17
   2.09999990      -5.36624530E-18
   2.15000010      -4.80419585E-17
   2.20000005      -1.05202299E-16
   2.25000000      -1.72022982E-16
   2.29999995      -2.39652673E-16
   2.34999990      -2.95221661E-16
   2.40000010      -3.22547949E-16
   2.45000005      -3.03654006E-16
   2.50000000      -2.21111148E-16
   2.54999995      -6.11037127E-17
   2.59999990       1.83039254E-16
   2.65000010       5.07241286E-16
   2.70000005       8.93525103E-16
   2.75000000       1.30791046E-15
   2.79999995       1.69997988E-15
   2.84999990       2.00465932E-15
   2.90000010       2.14660045E-15
   2.95000005       2.04729727E-15
   3.00000000       1.63472901E-15
   3.04999995       8.54945294E-16
   3.09999990      -3.15402776E-16
   3.15000010      -1.85693953E-15
   3.20000005      -3.69748177E-15
   3.25000000      -5.70576725E-15
   3.29999995      -7.69070595E-15
   3.34999990      -9.40760107E-15
   3.40000010      -1.05723002E-14
   3.45000005      -1.08834958E-14
   3.50000000      -1.00525591E-14
   3.54999995      -7.83926197E-15
   3.59999990      -4.09079051E-15
   3.65000010       1.21948392E-15
   3.70000005       7.95766786E-15
   3.75000000       1.58040237E-14
   3.79999995       2.42412020E-14
   3.84999990       3.25600719E-14
   3.90000010       3.98861682E-14
   3.95000005       4.52283407E-14
   4.00000000       4.75492618E-14
   4.05000019       4.58553754E-14
   4.09999990       3.93014953E-14
   4.15000010       2.73031584E-14
   4.19999981       9.64778828E-15
   4.25000000      -1.34055763E-14
   4.30000019      -4.10491377E-14
   4.34999990      -7.18827463E-14
   4.40000010      -1.03913887E-13
   4.44999981      -1.34609243E-13
   4.50000000      -1.61002925E-13
   4.55000019      -1.79862703E-13
   4.59999990      -1.87911156E-13
   4.65000010      -1.82093693E-13
   4.69999981      -1.59880992E-13
   4.75000000      -1.19588042E-13
   4.80000019      -6.06887384E-14
   4.84999990       1.58984611E-14
   4.90000010       1.07580293E-13
   4.94999981       2.09939528E-13
   5.00000000       3.16692094E-13
   5.05000019       4.19771260E-13
   5.09999990       5.09555234E-13
   5.15000010       5.75246231E-13
   5.19999981       6.05402772E-13
   5.25000000       5.88614660E-13
   5.30000019       5.14302197E-13
   5.34999990       3.73610187E-13
   5.40000010       1.60356686E-13
   5.44999981      -1.28010449E-13
   5.50000000      -4.89504975E-13
   5.55000019      -9.16800273E-13
   5.59999990      -1.39659790E-12
   5.65000010      -1.90922408E-12
   5.69999981      -2.42851399E-12
   5.75000000      -2.92203219E-12
   5.80000019      -3.35166855E-12
   5.84999990      -3.67463438E-12
   5.90000010      -3.84487104E-12
   5.94999981      -3.81486596E-12
   6.00000000      -3.53784493E-12
   6.05000019      -2.97030369E-12
   6.09999990      -2.07481471E-12
   6.15000010      -8.23028223E-13
   6.19999981       8.01224159E-13
   6.25000000       2.79883083E-12
   6.30000019       5.15242449E-12
   6.34999990       7.82364711E-12
   6.40000010       1.07507900E-11
   6.44999981       1.38469201E-11
   6.50000000       1.69986195E-11
   6.55000019       2.00654528E-11
   6.59999990       2.28802290E-11
   6.65000010       2.52501822E-11
   6.69999981       2.69590912E-11
   6.75000000       2.77703971E-11
   6.80000019       2.74313315E-11
   6.84999990       2.56780396E-11
   6.90000010       2.22416755E-11
   6.94999981       1.68553990E-11
   7.00000000       9.26219518E-12
   7.05000019      -7.76584797E-13
   7.09999990      -1.34720889E-11
   7.15000010      -2.89983714E-11
   7.19999981      -4.74825006E-11
   7.25000000      -6.89945046E-11
   7.30000019      -9.35373307E-11
   7.34999990      -1.21036958E-10
   7.40000010      -1.51332807E-10
   7.44999981      -1.84168514E-10
   7.50000000      -2.19183366E-10
   7.55000019      -2.55904076E-10
   7.59999990      -2.93737284E-10
   7.65000010      -3.31962624E-10
   7.69999981      -3.69726194E-10
   7.75000000      -4.06034539E-10
   7.80000019      -4.39748710E-10
   7.84999990      -4.69578154E-10
   7.90000010      -4.94074726E-10
   7.94999981      -5.11625409E-10
   8.00000000      -5.20444410E-10
   8.05000019      -5.18563581E-10
   8.10000038      -5.03820929E-10
   8.14999962      -4.73846462E-10
   8.19999981      -4.26045338E-10
   8.25000000      -3.57576857E-10
   8.30000019      -2.65329980E-10
   8.35000038      -1.45893825E-10
   8.39999962       4.47704243E-12
   8.44999981       1.89902732E-10
   8.50000000       4.14924622E-10
   8.55000019       6.84558077E-10
   8.60000038       1.00435260E-09
   8.64999962       1.38045864E-09
   8.69999981       1.81970106E-09
   8.75000000       2.32966246E-09
   8.80000019       2.91877056E-09
   8.85000038       3.59639518E-09
   8.89999962       4.37295267E-09
   8.94999981       5.26001553E-09
   9.00000000       6.27042951E-09
   9.05000019       7.41843698E-09
   9.10000038       8.71980532E-09
   9.14999962       1.01919602E-08
   9.19999981       1.18541248E-08
   9.25000000       1.37274565E-08
   9.30000019       1.58351963E-08
   9.35000038       1.82028046E-08
   9.39999962       2.08581135E-08
   9.44999981       2.38314684E-08
   9.50000000       2.71558651E-08
   9.55000019       3.08670884E-08
   9.60000038       3.50038505E-08
   9.64999962       3.96079116E-08
   9.69999981       4.47241995E-08
   9.75000000       5.04009172E-08
   9.80000019       5.66896396E-08
   9.85000038       6.36454018E-08
   9.89999962       7.13267738E-08
   9.94999981       7.97959032E-08
   10.0000000       8.91185650E-08
   10.0500002       9.93641791E-08
   10.1000004       1.10605789E-07
   10.1499996       1.22920071E-07
   10.1999998       1.36387243E-07
   10.2500000       1.51091044E-07
   10.3000002       1.67118614E-07
   10.3500004       1.84560321E-07
   10.3999996       2.03509657E-07
   10.4499998       2.24063058E-07
   10.5000000       2.46319644E-07
   10.5500002       2.70381037E-07
   10.6000004       2.96350919E-07
   10.6499996       3.24334934E-07
   10.6999998       3.54440203E-07
   10.7500000       3.86775014E-07
   10.8000002       4.21448277E-07
   10.8500004       4.58569303E-07
   10.8999996       4.98247118E-07
   10.9499998       5.40590065E-07
   11.0000000       5.85705209E-07
   11.0500002       6.33697880E-07
   11.1000004       6.84671079E-07
   11.1499996       7.38724680E-07
   11.1999998       7.95955089E-07
   11.2500000       8.56454506E-07
   11.3000002       9.20310072E-07
   11.3500004       9.87603585E-07
   11.3999996       1.05841059E-06
   11.4499998       1.13279998E-06
   11.5000000       1.21083281E-06
   11.5500002       1.29256239E-06
   11.6000004       1.37803340E-06
   11.6499996       1.46728087E-06
   11.6999998       1.56033036E-06
   11.7500000       1.65719678E-06
   11.8000002       1.75788477E-06
   11.8500004       1.86238719E-06
   11.8999996       1.97068562E-06
   11.9499998       2.08274946E-06
   12.0000000       2.19853632E-06
   12.0500002       2.31799140E-06
   12.1000004       2.44104695E-06
   12.1499996       2.56762382E-06
   12.1999998       2.69762950E-06
   12.2500000       2.83095937E-06
   12.3000002       2.96749749E-06
   12.3500004       3.10711539E-06
   12.3999996       3.24967368E-06
   12.4499998       3.39502208E-06
   12.5000000       3.54300005E-06
   12.5500002       3.69343707E-06
   12.6000004       3.84615441E-06
   12.6499996       4.00096496E-06
   12.6999998       4.15767363E-06
   12.7500000       4.31608032E-06
   12.8000002       4.47597949E-06
   12.8500004       4.63716015E-06
   12.8999996       4.79940991E-06
   12.9499998       4.96251459E-06
   13.0000000       5.12625729E-06
   13.0500002       5.29042427E-06
   13.1000004       5.45480179E-06
   13.1499996       5.61917977E-06
   13.1999998       5.78335266E-06
   13.2500000       5.94711946E-06
   13.3000002       6.11028690E-06
   13.3500004       6.27266900E-06
   13.3999996       6.43408885E-06
   13.4499998       6.59437956E-06
   13.5000000       6.75338515E-06
   13.5500002       6.91096193E-06
   13.6000004       7.06697801E-06
   13.6499996       7.22131563E-06
   13.6999998       7.37387245E-06
   13.7500000       7.52455799E-06
   13.8000002       7.67329948E-06
   13.8500004       7.82003826E-06
   13.8999996       7.96473341E-06
   13.9499998       8.10735673E-06
   14.0000000       8.24789822E-06
   14.0500002       8.38636333E-06
   14.1000004       8.52277208E-06
   14.1499996       8.65716083E-06
   14.1999998       8.78958053E-06
   14.2500000       8.92009484E-06
   14.3000002       9.04878289E-06
   14.3500004       9.17573561E-06
   14.3999996       9.30105489E-06
   14.4499998       9.42485531E-06
   14.5000000       9.54726056E-06
   14.5500002       9.66840253E-06
   14.6000004       9.78842218E-06
   14.6499996       9.90746503E-06
   14.6999998       1.00256839E-05
   14.7500000       1.01432342E-05
   14.8000002       1.02602753E-05
   14.8500004       1.03769680E-05
   14.8999996       1.04934707E-05
   14.9499998       1.06099442E-05
   15.0000000       1.07265469E-05
   15.0500002       1.08434306E-05
   15.1000004       1.09607445E-05
   15.1499996       1.10786323E-05
   15.1999998       1.11972313E-05
   15.2500000       1.13166698E-05
   15.3000002       1.14370669E-05
   15.3500004       1.15585335E-05
   15.3999996       1.16811707E-05
   15.4499998       1.18050666E-05
   15.5000000       1.19303004E-05
   15.5500002       1.20569375E-05
   15.6000004       1.21850317E-05
   15.6499996       1.23146247E-05
   15.6999998       1.24457456E-05
   15.7500000       1.25784081E-05
   15.8000002       1.27126168E-05
   15.8500004       1.28483625E-05
   15.8999996       1.29856217E-05
   15.9499998       1.31243623E-05
   16.0000000       1.32645382E-05
   16.0499992       1.34060920E-05
   16.1000004       1.35489572E-05
   16.1499996       1.36930530E-05
   16.2000008       1.38382966E-05
   16.2500000       1.39845897E-05
   16.2999992       1.41318296E-05
   16.3500004       1.42799063E-05
   16.3999996       1.44287023E-05
   16.4500008       1.45780959E-05
   16.5000000       1.47279607E-05
   16.5499992       1.48781646E-05
   16.6000004       1.50285759E-05
   16.6499996       1.51790591E-05
   16.7000008       1.53294804E-05
   16.7500000       1.54797017E-05
   16.7999992       1.56295901E-05
   16.8500004       1.57790109E-05
   16.8999996       1.59278352E-05
   16.9500008       1.60759355E-05
   17.0000000       1.62231863E-05
   17.0499992       1.63694713E-05
   17.1000004       1.65146739E-05
   17.1499996       1.66586888E-05
   17.2000008       1.68014121E-05
   17.2500000       1.69427512E-05
   17.2999992       1.70826152E-05
   17.3500004       1.72209257E-05
   17.3999996       1.73576100E-05
   17.4500008       1.74926008E-05
   17.5000000       1.76258454E-05
   17.5499992       1.77572911E-05
   17.6000004       1.78868977E-05
   17.6499996       1.80146344E-05
   17.7000008       1.81404721E-05
   17.7500000       1.82643998E-05
   17.7999992       1.83864067E-05
   17.8500004       1.85064910E-05
   17.8999996       1.86246561E-05
   17.9500008       1.87409187E-05
   18.0000000       1.88552967E-05
   18.0499992       1.89678158E-05
   18.1000004       1.90785086E-05
   18.1499996       1.91874115E-05
   18.2000008       1.92945699E-05
   18.2500000       1.94000295E-05
   18.2999992       1.95038429E-05
   18.3500004       1.96060664E-05
   18.3999996       1.97067584E-05
   18.4500008       1.98059843E-05
   18.5000000       1.99038077E-05
   18.5499992       2.00002978E-05
   18.6000004       2.00955219E-05
   18.6499996       2.01895546E-05
   18.7000008       2.02824667E-05
   18.7500000       2.03743311E-05
   18.7999992       2.04652242E-05
   18.8500004       2.05552169E-05
   18.8999996       2.06443819E-05
   18.9500008       2.07327939E-05
   19.0000000       2.08205238E-05
   19.0499992       2.09076443E-05
   19.1000004       2.09942191E-05
   19.1499996       2.10803209E-05
   19.2000008       2.11660117E-05
   19.2500000       2.12513587E-05
   19.2999992       2.13364201E-05
   19.3500004       2.14212560E-05
   19.3999996       2.15059226E-05
   19.4500008       2.15904729E-05
   19.5000000       2.16749577E-05
   19.5499992       2.17594225E-05
   19.6000004       2.18439127E-05
   19.6499996       2.19284684E-05
   19.7000008       2.20131260E-05
   19.7500000       2.20979218E-05
   19.7999992       2.21828814E-05
   19.8500004       2.22680355E-05
   19.8999996       2.23534062E-05
   19.9500008       2.24390078E-05
   20.0000000       2.25248587E-05
   20.0499992       2.26109678E-05
   20.1000004       2.26973425E-05
   20.1499996       2.27839846E-05
   20.2000008       2.28708868E-05
   20.2500000       2.29580492E-05
   20.2999992       2.30454552E-05
   20.3500004       2.31330905E-05
   20.3999996       2.32209350E-05
   20.4500008       2.33089631E-05
   20.5000000       2.33971441E-05
   20.5499992       2.34854469E-05
   20.6000004       2.35738280E-05
   20.6499996       2.36622473E-05
   20.7000008       2.37506538E-05
   20.7500000       2.38389985E-05
   20.7999992       2.39272267E-05
   20.8500004       2.40152749E-05
   20.8999996       2.41030812E-05
   20.9500008       2.41905745E-05
   21.0000000       2.42776878E-05
   21.0499992       2.43643444E-05
   21.1000004       2.44504663E-05
   21.1499996       2.45359715E-05
   21.2000008       2.46207783E-05
   21.2500000       2.47048010E-05
   21.2999992       2.47879525E-05
   21.3500004       2.48701454E-05
   21.3999996       2.49512868E-05
   21.4500008       2.50312878E-05
   21.5000000       2.51100573E-05
   21.5499992       2.51875044E-05
   21.6000004       2.52635400E-05
   21.6499996       2.53380713E-05
   21.7000008       2.54110164E-05
   21.7500000       2.54822880E-05
   21.7999992       2.55517989E-05
   21.8500004       2.56194726E-05
   21.8999996       2.56852327E-05
   21.9500008       2.57490065E-05
   22.0000000       2.58107248E-05
   22.0499992       2.58703240E-05
   22.1000004       2.59277458E-05
   22.1499996       2.59829376E-05
   22.2000008       2.60358520E-05
   22.2500000       2.60864508E-05
   22.2999992       2.61346977E-05
   22.3500004       2.61805653E-05
   22.3999996       2.62240355E-05
   22.4500008       2.62650956E-05
   22.5000000       2.63037418E-05
   22.5499992       2.63399725E-05
   22.6000004       2.63738057E-05
   22.6499996       2.64052542E-05
   22.7000008       2.64343471E-05
   22.7500000       2.64611172E-05
   22.7999992       2.64856044E-05
   22.8500004       2.65078615E-05
   22.8999996       2.65279450E-05
   22.9500008       2.65459166E-05
   23.0000000       2.65618492E-05
   23.0499992       2.65758172E-05
   23.1000004       2.65879062E-05
   23.1499996       2.65982071E-05
   23.2000008       2.66068128E-05
   23.2500000       2.66138250E-05
   23.2999992       2.66193456E-05
   23.3500004       2.66234874E-05
   23.3999996       2.66263596E-05
   23.4500008       2.66280767E-05
   23.5000000       2.66287607E-05
   23.5499992       2.66285260E-05
   23.6000004       2.66274965E-05
   23.6499996       2.66257921E-05
   23.7000008       2.66235365E-05
   23.7500000       2.66208517E-05
   23.7999992       2.66178558E-05
   23.8500004       2.66146708E-05
   23.8999996       2.66114075E-05
   23.9500008       2.66081861E-05
   24.0000000       2.66051156E-05
   24.0499992       2.66023053E-05
   24.1000004       2.65998551E-05
   24.1499996       2.65978633E-05
   24.2000008       2.65964227E-05
   24.2500000       2.65956241E-05
   24.2999992       2.65955459E-05
   24.3500004       2.65962626E-05
   24.3999996       2.65978433E-05
   24.4500008       2.66003499E-05
   24.5000000       2.66038332E-05
   24.5499992       2.66083389E-05
   24.6000004       2.66139068E-05
   24.6499996       2.66205625E-05
   24.7000008       2.66283296E-05
   24.7500000       2.66372208E-05
   24.7999992       2.66472380E-05
   24.8500004       2.66583756E-05
   24.8999996       2.66706193E-05
   24.9500008       2.66839488E-05
   25.0000000       2.66983297E-05
   25.0499992       2.67137239E-05
   25.1000004       2.67300820E-05
   25.1499996       2.67473442E-05
   25.2000008       2.67654450E-05
   25.2500000       2.67843134E-05
   25.2999992       2.68038639E-05
   25.3500004       2.68240074E-05
   25.3999996       2.68446474E-05
   25.4500008       2.68656804E-05
   25.5000000       2.68869917E-05
   25.5499992       2.69084685E-05
   25.6000004       2.69299853E-05
   25.6499996       2.69514112E-05
   25.7000008       2.69726133E-05
   25.7500000       2.69934517E-05
   25.7999992       2.70137862E-05
   25.8500004       2.70334695E-05
   25.8999996       2.70523506E-05
   25.9500008       2.70702840E-05
   26.0000000       2.70871133E-05
   26.0499992       2.71026838E-05
   26.1000004       2.71168446E-05
   26.1499996       2.71294412E-05
   26.2000008       2.71403205E-05
   26.2500000       2.71493336E-05
   26.2999992       2.71563313E-05
   26.3500004       2.71611698E-05
   26.3999996       2.71637055E-05
   26.4500008       2.71637982E-05
   26.5000000       2.71613226E-05
   26.5499992       2.71561457E-05
   26.6000004       2.71481458E-05
   26.6499996       2.71372101E-05
   26.7000008       2.71232311E-05
   26.7500000       2.71061072E-05
   26.7999992       2.70857436E-05
   26.8500004       2.70620567E-05
   26.8999996       2.70349719E-05
   26.9500008       2.70044184E-05
   27.0000000       2.69703396E-05
   27.0499992       2.69326847E-05
   27.1000004       2.68914155E-05
   27.1499996       2.68464973E-05
   27.2000008       2.67979103E-05
   27.2500000       2.67456417E-05
   27.2999992       2.66896895E-05
   27.3500004       2.66300576E-05
   27.3999996       2.65667622E-05
   27.4500008       2.64998271E-05
   27.5000000       2.64292830E-05
   27.5499992       2.63551719E-05
   27.6000004       2.62775357E-05
   27.6499996       2.61964342E-05
   27.7000008       2.61119258E-05
   27.7500000       2.60240777E-05
   27.7999992       2.59329645E-05
   27.8500004       2.58386590E-05
   27.8999996       2.57412466E-05
   27.9500008       2.56408111E-05
   28.0000000       2.55374416E-05
   28.0499992       2.54312272E-05
   28.1000004       2.53222570E-05
   28.1499996       2.52106274E-05
   28.2000008       2.50964295E-05
   28.2500000       2.49797522E-05
   28.2999992       2.48606884E-05
   28.3500004       2.47393236E-05
   28.3999996       2.46157433E-05
   28.4500008       2.44900257E-05
   28.5000000       2.43622471E-05
   28.5499992       2.42324804E-05
   28.6000004       2.41007892E-05
   28.6499996       2.39672336E-05
   28.7000008       2.38318607E-05
   28.7500000       2.36947217E-05
   28.7999992       2.35558437E-05
   28.8500004       2.34152612E-05
   28.8999996       2.32729926E-05
   28.9500008       2.31290469E-05
   29.0000000       2.29834259E-05
   29.0499992       2.28361223E-05
   29.1000004       2.26871180E-05
   29.1499996       2.25363874E-05
   29.2000008       2.23838942E-05
   29.2500000       2.22295930E-05
   29.2999992       2.20734346E-05
   29.3500004       2.19153571E-05
   29.3999996       2.17552897E-05
   29.4500008       2.15931632E-05
   29.5000000       2.14288902E-05
   29.5499992       2.12623854E-05
   29.6000004       2.10935596E-05
   29.6499996       2.09223126E-05
   29.7000008       2.07485464E-05
   29.7500000       2.05721572E-05
   29.7999992       2.03930413E-05
   29.8500004       2.02110987E-05
   29.8999996       2.00262202E-05
   29.9500008       1.98383059E-05
   30.0000000       1.96472556E-05
   30.0499992       1.94529694E-05
   30.1000004       1.92553507E-05
   30.1499996       1.90543124E-05
   30.2000008       1.88497706E-05
   30.2500000       1.86416419E-05
   30.2999992       1.84298588E-05
   30.3500004       1.82143540E-05
   30.3999996       1.79950675E-05
   30.4500008       1.77719485E-05
   30.5000000       1.75449568E-05
   30.5499992       1.73140597E-05
   30.6000004       1.70792282E-05
   30.6499996       1.68404476E-05
   30.7000008       1.65977126E-05
   30.7500000       1.63510213E-05
   30.7999992       1.61003827E-05
   30.8500004       1.58458115E-05
   30.8999996       1.55873349E-05
   30.9500008       1.53249803E-05
   31.0000000       1.50587894E-05
   31.0499992       1.47888031E-05
   31.1000004       1.45150707E-05
   31.1499996       1.42376439E-05
   31.2000008       1.39565800E-05
   31.2500000       1.36719409E-05
   31.2999992       1.33837893E-05
   31.3500004       1.30921899E-05
   31.3999996       1.27972053E-05
   31.4500008       1.24989019E-05
   31.5000000       1.21973462E-05
   31.5499992       1.18925991E-05
   31.6000004       1.15847197E-05
   31.6499996       1.12737707E-05
   31.7000008       1.09598050E-05
   31.7500000       1.06428743E-05
   31.7999992       1.03230259E-05
   31.8500004       1.00003044E-05
   31.8999996       9.67474898E-06
   31.9500008       9.34639320E-06
   32.0000000       9.01526892E-06
   32.0499992       8.68139887E-06
   32.0999985       8.34480397E-06
   32.1500015       8.00549878E-06
   32.2000008       7.66349694E-06
   32.2500000       7.31880209E-06
   32.2999992       6.97141877E-06
   32.3499985       6.62134880E-06
   32.4000015       6.26858582E-06
   32.4500008       5.91312892E-06
   32.5000000       5.55496763E-06
   32.5499992       5.19409650E-06
   32.5999985       4.83050644E-06
   32.6500015       4.46418517E-06
   32.7000008       4.09512813E-06
   32.7500000       3.72332852E-06
   32.7999992       3.34878132E-06
   32.8499985       2.97148222E-06
   32.9000015       2.59143758E-06
   32.9500008       2.20865059E-06
   33.0000000       1.82312920E-06
   33.0499992       1.43489353E-06
   33.0999985       1.04396611E-06
   33.1500015       6.50370851E-07
   33.2000008       2.54147693E-07
   33.2500000      -1.44662977E-07
   33.2999992      -5.46012927E-07
   33.3499985      -9.49838352E-07
   33.4000015      -1.35607388E-06
   33.4500008      -1.76464573E-06
   33.5000000      -2.17547085E-06
   33.5499992      -2.58845080E-06
   33.5999985      -3.00348756E-06
   33.6500015      -3.42047065E-06
   33.7000008      -3.83928318E-06
   33.7500000      -4.25979488E-06
   33.7999992      -4.68187227E-06
   33.8499985      -5.10537302E-06
   33.9000015      -5.53014752E-06
   33.9500008      -5.95604115E-06
   34.0000000      -6.38289157E-06
   34.0499992      -6.81053143E-06
   34.0999985      -7.23878748E-06
   34.1500015      -7.66748508E-06
   34.2000008      -8.09644280E-06
   34.2500000      -8.52547964E-06
   34.2999992      -8.95441099E-06
   34.3499985      -9.38305766E-06
   34.4000015      -9.81123139E-06
   34.4500008      -1.02387476E-05
   34.5000000      -1.06654288E-05
   34.5499992      -1.10910951E-05
   34.5999985      -1.15155672E-05
   34.6500015      -1.19386787E-05
   34.7000008      -1.23602595E-05
   34.7500000      -1.27801532E-05
   34.7999992      -1.31982033E-05
   34.8499985      -1.36142671E-05
   34.9000015      -1.40282054E-05
   34.9500008      -1.44398919E-05
   35.0000000      -1.48492054E-05
   35.0499992      -1.52560397E-05
   35.0999985      -1.56602964E-05
   35.1500015      -1.60618911E-05
   35.2000008      -1.64607482E-05
   35.2500000      -1.68568076E-05
   35.2999992      -1.72500204E-05
   35.3499985      -1.76403482E-05
   35.4000015      -1.80277711E-05
   35.4500008      -1.84122746E-05
   35.5000000      -1.87938658E-05
   35.5499992      -1.91725558E-05
   35.5999985      -1.95483772E-05
   35.6500015      -1.99213719E-05
   35.7000008      -2.02915871E-05
   35.7500000      -2.06590903E-05
   35.7999992      -2.10239541E-05
   35.8499985      -2.13862677E-05
   35.9000015      -2.17461220E-05
   35.9500008      -2.21036262E-05
   36.0000000      -2.24588912E-05
   36.0499992      -2.28120425E-05
   36.0999985      -2.31632075E-05
   36.1500015      -2.35125153E-05
   36.2000008      -2.38601133E-05
   36.2500000      -2.42061451E-05
   36.2999992      -2.45507581E-05
   36.3499985      -2.48941069E-05
   36.4000015      -2.52363425E-05
   36.4500008      -2.55776322E-05
   36.5000000      -2.59181197E-05
   36.5499992      -2.62579706E-05
   36.5999985      -2.65973376E-05
   36.6500015      -2.69363736E-05
   36.7000008      -2.72752313E-05
   36.7500000      -2.76140563E-05
   36.7999992      -2.79530013E-05
   36.8499985      -2.82922028E-05
   36.9000015      -2.86317918E-05
   36.9500008      -2.89718992E-05
   37.0000000      -2.93126486E-05
   37.0499992      -2.96541584E-05
   37.0999985      -2.99965359E-05
   37.1500015      -3.03398865E-05
   37.2000008      -3.06843031E-05
   37.2500000      -3.10298710E-05
   37.2999992      -3.13766723E-05
   37.3499985      -3.17247723E-05
   37.4000015      -3.20742402E-05
   37.4500008      -3.24251196E-05
   37.5000000      -3.27774651E-05
   37.5499992      -3.31313058E-05
   37.5999985      -3.34866672E-05
   37.6500015      -3.38435711E-05
   37.7000008      -3.42020248E-05
   37.7500000      -3.45620356E-05
   37.7999992      -3.49235888E-05
   37.8499985      -3.52866737E-05
   37.9000015      -3.56512683E-05
   37.9500008      -3.60173290E-05
   38.0000000      -3.63848194E-05
   38.0499992      -3.67536959E-05
   38.0999985      -3.71238930E-05
   38.1500015      -3.74953488E-05
   38.2000008      -3.78679870E-05
   38.2500000      -3.82417202E-05
   38.2999992      -3.86164575E-05