  -4.50000000       0.00000000    
  -4.44999981       0.00000000    
  -4.40000010       0.00000000    
  -4.34999990       0.00000000    
  -4.30000019       0.00000000    
  -4.25000000       0.00000000    
  -4.19999981      -1.20391860E-36
  -4.15000010       1.64274842E-34
  -4.09999990       1.94087084E-33
  -4.05000019       1.12878057E-32
  -4.00000000       4.32877117E-32
  -3.95000005       1.20689427E-31
  -3.90000010       2.49945740E-31
  -3.84999990       3.58851930E-31
  -3.79999995       2.08308319E-31
  -3.75000000      -6.44914381E-31
  -3.70000005      -2.68489511E-30
  -3.65000010      -5.91965301E-30
  -3.59999990      -9.02478208E-30
  -3.54999995      -8.54842738E-30
  -3.50000000       9.26698244E-31
  -3.45000005       2.44992583E-29
  -3.40000010       6.18195044E-29
  -3.34999990       9.99212960E-29
  -3.29999995       1.07332052E-28
  -3.25000000       3.53359244E-29
  -3.20000005      -1.66847813E-28
  -3.15000010      -5.18981594E-28
  -3.09999990      -9.62447860E-28
  -3.04999995      -1.31392516E-27
  -3.00000000      -1.24767914E-27
  -2.95000005      -3.40932837E-28
  -2.90000010       1.78861287E-27
  -2.84999990       5.24705631E-27
  -2.79999995       9.56582055E-27
  -2.75000000       1.34298978E-26
  -2.70000005       1.45747599E-26
  -2.65000010       1.00231850E-26
  -2.59999990      -3.18646496E-27
  -2.54999995      -2.67220993E-26
  -2.50000000      -5.92515583E-26
  -2.45000005      -9.46856617E-26
  -2.40000010      -1.21034004E-25
  -2.34999990      -1.20761009E-25
  -2.29999995      -7.35616923E-26
  -2.25000000       3.78260191E-26
  -2.20000005       2.18903009E-25
  -2.15000010       4.53109526E-25
  -2.09999990       6.92741951E-25
  -2.04999995       8.55255876E-25
  -2.00000000       8.29805350E-25
  -1.95000005       4.98198005E-25
  -1.89999998      -2.28142321E-25
  -1.85000002      -1.35831563E-24
  -1.79999995      -2.76864461E-24
  -1.75000000      -4.16209640E-24
  -1.70000005      -5.06161990E-24
  -1.64999998      -4.85926958E-24
  -1.60000002      -2.93696248E-24
  -1.54999995       1.13967563E-24
  -1.50000000       7.37522469E-24
  -1.45000005       1.50942113E-23
  -1.39999998       2.27611268E-23
  -1.35000002       2.79622382E-23
  -1.29999995       2.76391302E-23
  -1.25000000       1.86357913E-23
  -1.20000005      -1.43804018E-24
  -1.14999998      -3.31116792E-23
  -1.10000002      -7.39145818E-23
  -1.04999995      -1.17481356E-22
  -1.00000000      -1.53255782E-22
 -0.949999988      -1.67153416E-22
 -0.899999976      -1.43456981E-22
 -0.850000024      -6.80288401E-23
 -0.800000012       6.73635148E-23
 -0.750000000       2.60168775E-22
 -0.699999988       4.92543898E-22
 -0.649999976       7.28430979E-22
 -0.600000024       9.13555555E-22
 -0.550000012       9.79552795E-22
 -0.500000000       8.52981135E-22
 -0.449999988       4.69208711E-22
 -0.400000006      -2.09878249E-22
 -0.349999994      -1.17658798E-21
 -0.300000012      -2.35992104E-21
 -0.250000000      -3.61403570E-21
 -0.200000003      -4.71712831E-21
 -0.150000006      -5.38464771E-21
 -0.100000001      -5.29933219E-21
  -5.00000007E-02  -4.15820907E-21
   2.49800181E-16  -1.73363284E-21
   5.00000007E-02   2.05799588E-21
  0.100000001       7.08945968E-21
  0.150000006       1.29700506E-20
  0.200000003       1.90202653E-20
  0.250000000       2.42863136E-20
  0.300000012       2.76038248E-20
  0.349999994       2.77147995E-20
  0.400000006       2.34345195E-20
  0.449999988       1.38566970E-20
  0.500000000      -1.42357662E-21
  0.550000012      -2.20970557E-20
  0.600000024      -4.69708921E-20
  0.649999976      -7.38770773E-20
  0.699999988      -9.96904568E-20
  0.750000000      -1.20480084E-19
  0.800000012      -1.31805453E-19
  0.850000024      -1.29153021E-19
  0.899999976      -1.08490321E-19
  0.949999988      -6.68967005E-20
   1.00000000      -3.21330022E-21
   1.04999995       8.13572845E-20
   1.10000002       1.82777525E-19
   1.14999998       2.93903217E-19
   1.20000005       4.04480644E-19
   1.25000000       5.01464546E-19
   1.29999995       5.69687663E-19
   1.35000002       5.92885943E-19
   1.39999998       5.55055717E-19
   1.45000005       4.42087867E-19
   1.50000000       2.43597246E-19
   1.54999995      -4.51637965E-20
   1.60000002      -4.21440483E-19
   1.64999998      -8.73313096E-19
   1.70000005      -1.37840757E-18
   1.75000000      -1.90315792E-18
   1.79999995      -2.40280831E-18
   1.85000002      -2.82233260E-18
   1.89999998      -3.09843473E-18
   1.95000005      -3.16276167E-18
   2.00000000      -2.94640307E-18
   2.04999995      -2.38567471E-18
   2.09999990      -1.42907641E-18
   2.15000010      -4.51789992E-20
   2.20000005       1.76896193E-18
   2.25000000       3.97944226E-18
   2.29999995       6.50794687E-18
   2.34999990       9.22590023E-18
   2.40000010       1.19513512E-17
   2.45000005       1.44496757E-17
   2.50000000       1.64391261E-17
   2.54999995       1.76020990E-17
   2.59999990       1.76026896E-17
   2.65000010       1.61107007E-17
   2.70000005       1.28316467E-17
   2.75000000       7.54167034E-18
   2.79999995       1.25506615E-19
   2.84999990      -9.38508701E-18
   2.90000010      -2.07757677E-17
   2.95000005      -3.36207395E-17
   3.00000000      -4.72647892E-17
   3.04999995      -6.08203934E-17
   3.09999990      -7.31837062E-17
   3.15000010      -8.30725975E-17
   3.20000005      -8.90885365E-17
   3.25000000      -8.98024463E-17
   3.29999995      -8.38631373E-17
   3.34999990      -7.01240644E-17
   3.40000010      -4.77824851E-17
   3.45000005      -1.65226465E-17
   3.50000000       2.33476244E-17
   3.54999995       7.07782253E-17
   3.59999990       1.23888984E-16
   3.65000010       1.79925150E-16
   3.70000005       2.35267980E-16
   3.75000000       2.85510269E-16
   3.79999995       3.25603541E-16
   3.84999990       3.50080252E-16
   3.90000010       3.53349747E-16
   3.95000005       3.30061026E-16
   4.00000000       2.75521104E-16
   4.05000019       1.86151650E-16
   4.09999990       5.99619454E-17
   4.15000010      -1.02988982E-16
   4.19999981      -3.00169312E-16
   4.25000000      -5.26222183E-16
   4.30000019      -7.72717823E-16
   4.34999990      -1.02803775E-15
   4.40000010      -1.27742013E-15
   4.44999981      -1.50318882E-15
   4.50000000      -1.68517861E-15
   4.55000019      -1.80136993E-15
   4.59999990      -1.82872105E-15
   4.65000010      -1.74419394E-15
   4.69999981      -1.52594108E-15
   4.75000000      -1.15462343E-15
   4.80000019      -6.14807483E-16
   4.84999990       1.03613332E-16
   4.90000010       1.00403844E-15
   4.94999981       2.08189369E-15
   5.00000000       3.32355251E-15
   5.05000019       4.70552383E-15
   5.09999990       6.19396993E-15
   5.15000010       7.74463399E-15
   5.19999981       9.30321358E-15
   5.25000000       1.08062346E-14
   5.30000019       1.21824353E-14
   5.34999990       1.33546721E-14
   5.40000010       1.42423135E-14
   5.44999981       1.47640740E-14
   5.50000000       1.48412149E-14
   5.55000019       1.44010407E-14
   5.59999990       1.33805126E-14
   5.65000010       1.17299155E-14
   5.69999981       9.41636787E-15
   5.75000000       6.42704502E-15
   5.80000019       2.77195555E-15
   5.84999990      -1.51389542E-15
   5.90000010      -6.36908044E-15
   5.94999981      -1.17051966E-14
   6.00000000      -1.74072691E-14
   6.05000019      -2.33351563E-14
   6.09999990      -2.93260018E-14
   6.15000010      -3.51976952E-14
   6.19999981      -4.07532386E-14
   6.25000000      -4.57859933E-14
   6.30000019      -5.00855630E-14
   6.34999990      -5.34441537E-14
   6.40000010      -5.56632445E-14
   6.44999981      -5.65602117E-14
   6.50000000      -5.59747493E-14
   6.55000019      -5.37748184E-14
   6.59999990      -4.98618040E-14
   6.65000010      -4.41747333E-14
   6.69999981      -3.66933250E-14
   6.75000000      -2.74397103E-14
   6.80000019      -1.64786889E-14
   6.84999990      -3.91656685E-15
   6.90000010       1.01015328E-14
   6.94999981       2.53957893E-14
   7.00000000       4.17570404E-14
   7.05000019       5.89533034E-14
   7.09999990       7.67372006E-14
   7.15000010       9.48539546E-14
   7.19999981       1.13049896E-13
   7.25000000       1.31080720E-13
   7.30000019       1.48719619E-13
   7.34999990       1.65764768E-13
   7.40000010       1.82045839E-13
   7.44999981       1.97429163E-13
   7.50000000       2.11821758E-13
   7.55000019       2.25172921E-13
   7.59999990       2.37474482E-13
   7.65000010       2.48758425E-13
   7.69999981       2.59092877E-13
   7.75000000       2.68574632E-13
   7.80000019       2.77320267E-13
   7.84999990       2.85454115E-13
   7.90000010       2.93094108E-13
   7.94999981       3.00334004E-13
   8.00000000       3.07224515E-13
   8.05000019       3.13751385E-13
   8.10000038       3.19810096E-13
   8.14999962       3.25178632E-13
   8.19999981       3.29488200E-13
   8.25000000       3.32190032E-13
   8.30000019       3.32520659E-13
   8.35000038       3.29463561E-13
   8.39999962       3.21709564E-13
   8.44999981       3.07612442E-13
   8.50000000       2.85143708E-13
   8.55000019       2.51843956E-13
   8.60000038       2.04769348E-13
   8.64999962       1.40440163E-13
   8.69999981       5.47781289E-14
   8.75000000      -5.69489253E-14
   8.80000019      -2.00191453E-13
   8.85000038      -3.81188137E-13
   8.89999962      -6.07027503E-13
   8.94999981      -8.85719720E-13
   9.00000000      -1.22627743E-12
   9.05000019      -1.63877744E-12
   9.10000038      -2.13445212E-12
   9.14999962      -2.72574931E-12
   9.19999981      -3.42642603E-12
   9.25000000      -4.25162639E-12
   9.30000019      -5.21795107E-12
   9.35000038      -6.34355849E-12
   9.39999962      -7.64820932E-12
   9.44999981      -9.15340113E-12
   9.50000000      -1.08824061E-11
   9.55000019      -1.28603517E-11
   9.60000038      -1.51143421E-11
   9.64999962      -1.76734651E-11
   9.69999981      -2.05689216E-11
   9.75000000      -2.38340649E-11
   9.80000019      -2.75045212E-11
   9.85000038      -3.16181907E-11
   9.89999962      -3.62153571E-11
   9.94999981      -4.13386721E-11
   10.0000000      -4.70333009E-11
   10.0500002      -5.33468825E-11
   10.1000004      -6.03295539E-11
   10.1499996      -6.80339882E-11
   10.1999998      -7.65154606E-11
   10.2500000      -8.58317098E-11
   10.3000002      -9.60430901E-11
   10.3500004      -1.07212239E-10
   10.3999996      -1.19404306E-10
   10.4499998      -1.32686570E-10
   10.5000000      -1.47128518E-10
   10.5500002      -1.62801744E-10
   10.6000004      -1.79779747E-10
   10.6499996      -1.98137562E-10
   10.6999998      -2.17951643E-10
   10.7500000      -2.39299497E-10
   10.8000002      -2.62259686E-10
   10.8500004      -2.86911273E-10
   10.8999996      -3.13333332E-10
   10.9499998      -3.41604939E-10
   11.0000000      -3.71804559E-10
   11.0500002      -4.04009465E-10
   11.1000004      -4.38295372E-10
   11.1499996      -4.74735640E-10
   11.1999998      -5.13401377E-10
   11.2500000      -5.54360446E-10
   11.3000002      -5.97677130E-10
   11.3500004      -6.43411102E-10
   11.3999996      -6.91617263E-10
   11.4499998      -7.42345296E-10
   11.5000000      -7.95637944E-10
   11.5500002      -8.51531901E-10
   11.6000004      -9.10056031E-10
   11.6499996      -9.71231207E-10
   11.6999998      -1.03507014E-09
   11.7500000      -1.10157483E-09
   11.8000002      -1.17073840E-09
   11.8500004      -1.24254340E-09
   11.8999996      -1.31696065E-09
   11.9499998      -1.39394940E-09
   12.0000000      -1.47345713E-09
   12.0500002      -1.55541779E-09
   12.1000004      -1.63975222E-09
   12.1499996      -1.72636894E-09
   12.1999998      -1.81516135E-09
   12.2500000      -1.90600913E-09
   12.3000002      -1.99877714E-09
   12.3500004      -2.09331463E-09
   12.3999996      -2.18945617E-09
   12.4499998      -2.28702302E-09
   12.5000000      -2.38581910E-09
   12.5500002      -2.48563237E-09
   12.6000004      -2.58623789E-09
   12.6499996      -2.68739475E-09
   12.6999998      -2.78884849E-09
   12.7500000      -2.89032842E-09
   12.8000002      -2.99155190E-09
   12.8500004      -3.09222070E-09
   12.8999996      -3.19202531E-09
   12.9499998      -3.29064354E-09
   13.0000000      -3.38774253E-09
   13.0500002      -3.48297635E-09
   13.1000004      -3.57599195E-09
   13.1499996      -3.66642472E-09
   13.1999998      -3.75390652E-09
   13.2500000      -3.83806187E-09
   13.3000002      -3.91850641E-09
   13.3500004      -3.99485378E-09
   13.3999996      -4.06671630E-09
   13.4499998      -4.13370671E-09
   13.5000000      -4.19543378E-09
   13.5500002      -4.25151292E-09
   13.6000004      -4.30155866E-09
   13.6499996      -4.34519754E-09
   13.6999998      -4.38205694E-09
   13.7500000      -4.41177761E-09
   13.8000002      -4.43400960E-09
   13.8500004      -4.44841719E-09
   13.8999996      -4.45467663E-09
   13.9499998      -4.45248194E-09
   14.0000000      -4.44154802E-09
   14.0500002      -4.42160797E-09
   14.1000004      -4.39241754E-09
   14.1499996      -4.35375469E-09
   14.1999998      -4.30542224E-09
   14.2500000      -4.24725277E-09
   14.3000002      -4.17910417E-09
   14.3500004      -4.10086498E-09
   14.3999996      -4.01245703E-09
   14.4499998      -3.91383015E-09
   14.5000000      -3.80497012E-09
   14.5500002      -3.68589781E-09
   14.6000004      -3.55666652E-09
   14.6499996      -3.41736861E-09
   14.6999998      -3.26813043E-09
   14.7500000      -3.10911674E-09
   14.8000002      -2.94052849E-09
   14.8500004      -2.76260481E-09
   14.8999996      -2.57562194E-09
   14.9499998      -2.37989228E-09
   15.0000000      -2.17576646E-09
   15.0500002      -1.96363081E-09
   15.1000004      -1.74390724E-09
   15.1499996      -1.51705359E-09
   15.1999998      -1.28355948E-09
   15.2500000      -1.04394815E-09
   15.3000002      -7.98777877E-10
   15.3500004      -5.48633416E-10
   15.3999996      -2.94133301E-10
   15.4499998      -3.59221611E-11
   15.5000000       2.25328298E-10
   15.5500002       4.88921903E-10
   15.6000004       7.54139418E-10
   15.6499996       1.02023878E-09
   15.6999998       1.28645949E-09
   15.7500000       1.55202096E-09
   15.8000002       1.81612658E-09
   15.8500004       2.07796358E-09
   15.8999996       2.33670994E-09
   15.9499998       2.59153321E-09
   16.0000000       2.84158785E-09
   16.0499992       3.08601900E-09
   16.1000004       3.32397665E-09
   16.1499996       3.55459617E-09
   16.2000008       3.77701470E-09
   16.2500000       3.99037337E-09
   16.2999992       4.19380930E-09
   16.3500004       4.38646586E-09
   16.3999996       4.56749571E-09
   16.4500008       4.73605155E-09
   16.5000000       4.89130114E-09
   16.5499992       5.03241981E-09
   16.6000004       5.15859799E-09
   16.6499996       5.26903809E-09
   16.7000008       5.36295985E-09
   16.7500000       5.43960343E-09
   16.7999992       5.49822410E-09
   16.8500004       5.53810198E-09
   16.8999996       5.55853719E-09
   16.9500008       5.55885871E-09
   17.0000000       5.53842572E-09
   17.0499992       5.49661872E-09
   17.1000004       5.43284484E-09
   17.1499996       5.34656097E-09
   17.2000008       5.23723509E-09
   17.2500000       5.10437781E-09
   17.2999992       4.94755215E-09
   17.3500004       4.76633710E-09
   17.3999996       4.56037252E-09
   17.4500008       4.32931291E-09
   17.5000000       4.07288114E-09
   17.5499992       3.79082632E-09
   17.6000004       3.48295304E-09
   17.6499996       3.14909809E-09
   17.7000008       2.78915180E-09
   17.7500000       2.40305686E-09
   17.7999992       1.99079486E-09
   17.8500004       1.55239555E-09
   17.8999996       1.08794074E-09
   17.9500008       5.97549454E-10
   18.0000000       8.14012746E-11
   18.0499992      -4.60288141E-10
   18.1000004      -1.02724429E-09
   18.1499996      -1.61915525E-09
   18.2000008      -2.23565877E-09
   18.2500000      -2.87635626E-09
   18.2999992      -3.54079766E-09
   18.3500004      -4.22849178E-09
   18.3999996      -4.93891106E-09
   18.4500008      -5.67148595E-09
   18.5000000      -6.42561115E-09
   18.5499992      -7.20064408E-09
   18.6000004      -7.99591149E-09
   18.6499996      -8.81071305E-09
   18.7000008      -9.64431646E-09
   18.7500000      -1.04959614E-08
   18.7999992      -1.13648646E-08
   18.8500004      -1.22502257E-08
   18.8999996      -1.31512223E-08
   18.9500008      -1.40670151E-08
   19.0000000      -1.49967523E-08
   19.0499992      -1.59395768E-08
   19.1000004      -1.68946137E-08
   19.1499996      -1.78609909E-08
   19.2000008      -1.88378273E-08
   19.2500000      -1.98242436E-08
   19.2999992      -2.08193605E-08
   19.3500004      -2.18223022E-08
   19.3999996      -2.28322019E-08
   19.4500008      -2.38481928E-08
   19.5000000      -2.48694274E-08
   19.5499992      -2.58950621E-08
   19.6000004      -2.69242673E-08
   19.6499996      -2.79562293E-08
   19.7000008      -2.89901507E-08
   19.7500000      -3.00252481E-08
   19.7999992      -3.10607504E-08
   19.8500004      -3.20959153E-08
   19.8999996      -3.31300072E-08
   19.9500008      -3.41623121E-08
   20.0000000      -3.51921337E-08
   20.0499992      -3.62187969E-08
   20.1000004      -3.72416338E-08
   20.1499996      -3.82600014E-08
   20.2000008      -3.92732638E-08
   20.2500000      -4.02808062E-08
   20.2999992      -4.12820249E-08
   20.3500004      -4.22763264E-08
   20.3999996      -4.32631282E-08
   20.4500008      -4.42418511E-08
   20.5000000      -4.52119231E-08
   20.5499992      -4.61727723E-08
   20.6000004      -4.71238373E-08
   20.6499996      -4.80645568E-08
   20.7000008      -4.89943446E-08
   20.7500000      -4.99126287E-08
   20.7999992      -5.08188229E-08
   20.8500004      -5.17123269E-08
   20.8999996      -5.25925259E-08
   20.9500008      -5.34587912E-08
   21.0000000      -5.43104619E-08
   21.0499992      -5.51468702E-08
   21.1000004      -5.59673126E-08
   21.1499996      -5.67710678E-08
   21.2000008      -5.75573651E-08
   21.2500000      -5.83254156E-08
   21.2999992      -5.90743916E-08
   21.3500004      -5.98034191E-08
   21.3999996      -6.05115886E-08
   21.4500008      -6.11979303E-08
   21.5000000      -6.18614635E-08
   21.5499992      -6.25011225E-08
   21.6000004      -6.31158201E-08
   21.6499996      -6.37044195E-08
   21.7000008      -6.42657128E-08
   21.7500000      -6.47984422E-08
   21.7999992      -6.53013004E-08
   21.8500004      -6.57729373E-08
   21.8999996      -6.62119390E-08
   21.9500008      -6.66168205E-08
   22.0000000      -6.69860825E-08
   22.0499992      -6.73181333E-08
   22.1000004      -6.76113459E-08
   22.1499996      -6.78640220E-08
   22.2000008      -6.80744350E-08
   22.2500000      -6.82408086E-08
   22.2999992      -6.83612953E-08
   22.3500004      -6.84340051E-08
   22.3999996      -6.84570125E-08
   22.4500008      -6.84283492E-08
   22.5000000      -6.83459902E-08
   22.5499992      -6.82078820E-08
   22.6000004      -6.80119498E-08
   22.6499996      -6.77560550E-08
   22.7000008      -6.74380587E-08
   22.7500000      -6.70557725E-08
   22.7999992      -6.66070150E-08
   22.8500004      -6.60895623E-08
   22.8999996      -6.55011831E-08
   22.9500008      -6.48396608E-08
   23.0000000      -6.41027498E-08
   23.0499992      -6.32882191E-08
   23.1000004      -6.23938590E-08
   23.1499996      -6.14174667E-08
   23.2000008      -6.03568537E-08
   23.2500000      -5.92098672E-08
   23.2999992      -5.79743933E-08
   23.3500004      -5.66483536E-08
   23.3999996      -5.52297195E-08
   23.4500008      -5.37165299E-08
   23.5000000      -5.21068912E-08
   23.5499992      -5.03989632E-08
   23.6000004      -4.85910121E-08
   23.6499996      -4.66813965E-08
   23.7000008      -4.46685604E-08
   23.7500000      -4.25510649E-08
   23.7999992      -4.03275848E-08
   23.8500004      -3.79969478E-08
   23.8999996      -3.55580916E-08
   23.9500008      -3.30101173E-08
   24.0000000      -3.03522647E-08
   24.0499992      -2.75839565E-08
   24.1000004      -2.47047947E-08
   24.1499996      -2.17145413E-08
   24.2000008      -1.86131750E-08
   24.2500000      -1.54008468E-08
   24.2999992      -1.20779289E-08
   24.3500004      -8.64499938E-09
   24.3999996      -5.10285725E-09
   24.4500008      -1.45253243E-09
   24.5000000       2.30472796E-09
   24.5499992       6.16743412E-09
   24.6000004       1.01338591E-08
   24.6499996       1.42020431E-08
   24.7000008       1.83697768E-08
   24.7500000       2.26346000E-08
   24.7999992       2.69938258E-08
   24.8500004       3.14445074E-08
   24.8999996       3.59834793E-08
   24.9500008       4.06073077E-08
   25.0000000       4.53123405E-08
   25.0499992       5.00947053E-08
   25.1000004       5.49502843E-08
   25.1499996       5.98747718E-08
   25.2000008       6.48636274E-08
   25.2500000       6.99121188E-08
   25.2999992       7.50153362E-08
   25.3500004       8.01681708E-08
   25.3999996       8.53653574E-08
   25.4500008       9.06014748E-08
   25.5000000       9.58709592E-08
   25.5499992       1.01168112E-07
   25.6000004       1.06487150E-07
   25.6499996       1.11822153E-07
   25.7000008       1.17167133E-07
   25.7500000       1.22516028E-07
   25.7999992       1.27862748E-07
   25.8500004       1.33201127E-07
   25.8999996       1.38525010E-07
   25.9500008       1.43828245E-07
   26.0000000       1.49104636E-07
   26.0499992       1.54348072E-07
   26.1000004       1.59552457E-07
   26.1499996       1.64711750E-07
   26.2000008       1.69820012E-07
   26.2500000       1.74871374E-07
   26.2999992       1.79860066E-07
   26.3500004       1.84780461E-07
   26.3999996       1.89627031E-07
   26.4500008       1.94394417E-07
   26.5000000       1.99077391E-07
   26.5499992       2.03670908E-07
   26.6000004       2.08170135E-07
   26.6499996       2.12570356E-07
   26.7000008       2.16867122E-07
   26.7500000       2.21056155E-07
   26.7999992       2.25133405E-07
   26.8500004       2.29094994E-07
   26.8999996       2.32937353E-07
   26.9500008       2.36657058E-07
   27.0000000       2.40250984E-07
   27.0499992       2.43716187E-07
   27.1000004       2.47049996E-07
   27.1499996       2.50249997E-07
   27.2000008       2.53313942E-07
   27.2500000       2.56239872E-07
   27.2999992       2.59026109E-07
   27.3500004       2.61671090E-07
   27.3999996       2.64173622E-07
   27.4500008       2.66532652E-07
   27.5000000       2.68747357E-07
   27.5499992       2.70817168E-07
   27.6000004       2.72741659E-07
   27.6499996       2.74520687E-07
   27.7000008       2.76154282E-07
   27.7500000       2.77642584E-07
   27.7999992       2.78986050E-07
   27.8500004       2.80185191E-07
   27.8999996       2.81240688E-07
   27.9500008       2.82153422E-07
   28.0000000       2.82924390E-07
   28.0499992       2.83554670E-07
   28.1000004       2.84045512E-07
   28.1499996       2.84398226E-07
   28.2000008       2.84614202E-07
   28.2500000       2.84694949E-07
   28.2999992       2.84641970E-07
   28.3500004       2.84456888E-07
   28.3999996       2.84141294E-07
   28.4500008       2.83696863E-07
   28.5000000       2.83125217E-07
   28.5499992       2.82428033E-07
   28.6000004       2.81606958E-07
   28.6499996       2.80663528E-07
   28.7000008       2.79599391E-07
   28.7500000       2.78416024E-07
   28.7999992       2.77114935E-07
   28.8500004       2.75697488E-07
   28.8999996       2.74165018E-07
   28.9500008       2.72518776E-07
   29.0000000       2.70759898E-07
   29.0499992       2.68889437E-07
   29.1000004       2.66908359E-07
   29.1499996       2.64817515E-07
   29.2000008       2.62617590E-07
   29.2500000       2.60309236E-07
   29.2999992       2.57892964E-07
   29.3500004       2.55369173E-07
   29.3999996       2.52738118E-07
   29.4500008       2.50000028E-07
   29.5000000       2.47154929E-07
   29.5499992       2.44202823E-07
   29.6000004       2.41143567E-07
   29.6499996       2.37976991E-07
   29.7000008       2.34702810E-07
   29.7500000       2.31320641E-07
   29.7999992       2.27830071E-07
   29.8500004       2.24230632E-07
   29.8999996       2.20521798E-07
   29.9500008       2.16703029E-07
   30.0000000       2.12773770E-07
   30.0499992       2.08733439E-07
   30.1000004       2.04581468E-07
   30.1499996       2.00317317E-07
   30.2000008       1.95940444E-07
   30.2500000       1.91450383E-07
   30.2999992       1.86846705E-07
   30.3500004       1.82129057E-07
   30.3999996       1.77297153E-07
   30.4500008       1.72350809E-07
   30.5000000       1.67289954E-07
   30.5499992       1.62114603E-07
   30.6000004       1.56824925E-07
   30.6499996       1.51421233E-07
   30.7000008       1.45903940E-07
   30.7500000       1.40273656E-07
   30.7999992       1.34531149E-07
   30.8500004       1.28677343E-07
   30.8999996       1.22713331E-07
   30.9500008       1.16640429E-07
   31.0000000       1.10460093E-07
   31.0499992       1.04174006E-07
   31.1000004       9.77840457E-08
   31.1499996       9.12922715E-08
   31.2000008       8.47009289E-08
   31.2500000       7.80125049E-08
   31.2999992       7.12296568E-08
   31.3500004       6.43552482E-08
   31.3999996       5.73923344E-08
   31.4500008       5.03441733E-08
   31.5000000       4.32142038E-08
   31.5499992       3.60060852E-08
   31.6000004       2.87236297E-08
   31.6499996       2.13708464E-08
   31.7000008       1.39519143E-08
   31.7500000       6.47119602E-09
   31.7999992      -1.06679532E-09
   31.8500004      -8.65738947E-09
   31.8999996      -1.62957683E-08
   31.9500008      -2.39769555E-08
   32.0000000      -3.16958406E-08
   32.0499992      -3.94472011E-08
   32.0999985      -4.72256900E-08
   32.1500015      -5.50258292E-08
   32.2000008      -6.28420764E-08
   32.2500000      -7.06687544E-08
   32.2999992      -7.85001362E-08
   32.3499985      -8.63304095E-08
   32.4000015      -9.41536769E-08
   32.4500008      -1.01964012E-07
   32.5000000      -1.09755440E-07
   32.5499992      -1.17521928E-07
   32.5999985      -1.25257444E-07
   32.6500015      -1.32955932E-07
   32.7000008      -1.40611348E-07
   32.7500000      -1.48217623E-07
   32.7999992      -1.55768760E-07
   32.8499985      -1.63258704E-07
   32.9000015      -1.70681560E-07
   32.9500008      -1.78031371E-07
   33.0000000      -1.85302312E-07
   33.0499992      -1.92488585E-07
   33.0999985      -1.99584520E-07
   33.1500015      -2.06584474E-07
   33.2000008      -2.13482977E-07
   33.2500000      -2.20274615E-07
   33.2999992      -2.26954128E-07
   33.3499985      -2.33516388E-07
   33.4000015      -2.39956421E-07
   33.4500008      -2.46269337E-07
   33.5000000      -2.52450491E-07
   33.5499992      -2.58495362E-07
   33.5999985      -2.64399631E-07
   33.6500015      -2.70159120E-07
   33.7000008      -2.75769850E-07
   33.7500000      -2.81228068E-07
   33.7999992      -2.86530252E-07
   33.8499985      -2.91672990E-07
   33.9000015      -2.96653184E-07
   33.9500008      -3.01467850E-07
   34.0000000      -3.06114373E-07
   34.0499992      -3.10590167E-07
   34.0999985      -3.14893015E-07
   34.1500015      -3.19020842E-07
   34.2000008      -3.22971857E-07
   34.2500000      -3.26744441E-07
   34.2999992      -3.30337230E-07
   34.3499985      -3.33749057E-07
   34.4000015      -3.36978957E-07
   34.4500008      -3.40026219E-07
   34.5000000      -3.42890303E-07
   34.5499992      -3.45570896E-07
   34.5999985      -3.48067857E-07
   34.6500015      -3.50381299E-07
   34.7000008      -3.52511449E-07
   34.7500000      -3.54458763E-07
   34.7999992      -3.56223808E-07
   34.8499985      -3.57807380E-07
   34.9000015      -3.59210446E-07
   34.9500008      -3.60434029E-07
   35.0000000      -3.61479351E-07
   35.0499992      -3.62347777E-07
   35.0999985      -3.63040783E-07
   35.1500015      -3.63559934E-07
   35.2000008      -3.63906935E-07
   35.2500000      -3.64083547E-07
   35.2999992      -3.64091647E-07
   35.3499985      -3.63933225E-07
   35.4000015      -3.63610241E-07
   35.4500008      -3.63124798E-07
   35.5000000      -3.62479057E-07
   35.5499992      -3.61675148E-07
   35.5999985      -3.60715376E-07
   35.6500015      -3.59601927E-07
   35.7000008      -3.58337104E-07
   35.7500000      -3.56923238E-07
   35.7999992      -3.55362630E-07
   35.8499985      -3.53657640E-07
   35.9000015      -3.51810627E-07
   35.9500008      -3.49823893E-07
   36.0000000      -3.47699796E-07
   36.0499992      -3.45440725E-07
   36.0999985      -3.43049010E-07
   36.1500015      -3.40526952E-07
   36.2000008      -3.37876855E-07
   36.2500000      -3.35101078E-07
   36.2999992      -3.32201893E-07
   36.3499985      -3.29181546E-07
   36.4000015      -3.26042340E-07
   36.4500008      -3.22786519E-07
   36.5000000      -3.19416273E-07
   36.5499992      -3.15933875E-07
   36.5999985      -3.12341513E-07
   36.6500015      -3.08641347E-07
   36.7000008      -3.04835595E-07
   36.7500000      -3.00926416E-07
   36.7999992      -2.96915971E-07
   36.8499985      -2.92806419E-07
   36.9000015      -2.88599892E-07
   36.9500008      -2.84298579E-07
   37.0000000      -2.79904640E-07
   37.0499992      -2.75420206E-07
   37.0999985      -2.70847465E-07
   37.1500015      -2.66188522E-07
   37.2000008      -2.61445621E-07
   37.2500000      -2.56620893E-07
   37.2999992      -2.51716557E-07
   37.3499985      -2.46734800E-07
   37.4000015      -2.41677810E-07
   37.4500008      -2.36547876E-07
   37.5000000      -2.31347187E-07
   37.5499992      -2.26078029E-07
   37.5999985      -2.20742663E-07
   37.6500015      -2.15343377E-07
   37.7000008      -2.09882487E-07
   37.7500000      -2.04362323E-07
   37.7999992      -1.98785244E-07
   37.8499985      -1.93153610E-07
   37.9000015      -1.87469780E-07
   37.9500008      -1.81736183E-07
   38.0000000      -1.75955279E-07
   38.0499992      -1.70129454E-07
   38.0999985      -1.64261223E-07
   38.1500015      -1.58353046E-07
   38.2000008      -1.52407438E-07
   38.2500000      -1.46426913E-07
   38.2999992      -1.40414016E-07