  -4.50000000       0.00000000    
  -4.44999981       0.00000000    
  -4.40000010       0.00000000    
  -4.34999990       0.00000000    
  -4.30000019       0.00000000    
  -4.25000000       0.00000000    
  -4.19999981       4.63140068E-35
  -4.15000010       4.84107282E-34
  -4.09999990       2.56376328E-33
  -4.05000019       8.95645366E-33
  -4.00000000       2.23440376E-32
  -3.95000005       3.91089880E-32
  -3.90000010       3.71275394E-32
  -3.84999990      -3.52272735E-32
  -3.79999995      -2.48924612E-31
  -3.75000000      -6.36022660E-31
  -3.70000005      -1.07399860E-30
  -3.65000010      -1.15993015E-30
  -3.59999990      -2.05264118E-31
  -3.54999995       2.46404512E-30
  -3.50000000       6.78387081E-30
  -3.45000005       1.09482738E-29
  -3.40000010       1.06994918E-29
  -3.34999990      -1.13994282E-31
  -3.29999995      -2.67208095E-29
  -3.25000000      -6.80964412E-29
  -3.20000005      -1.10467658E-28
  -3.15000010      -1.23070161E-28
  -3.09999990      -6.11084812E-29
  -3.04999995       1.19509984E-28
  -3.00000000       4.34496584E-28
  -2.95000005       8.35894811E-28
  -2.90000010       1.18255055E-27
  -2.84999990       1.23601427E-27
  -2.79999995       7.02007339E-28
  -2.75000000      -6.71222504E-28
  -2.70000005      -2.94531060E-27
  -2.65000010      -5.82868869E-27
  -2.59999990      -8.55756079E-27
  -2.54999995      -9.89554900E-27
  -2.50000000      -8.31988486E-27
  -2.45000005      -2.42586014E-27
  -2.40000010       8.48456342E-27
  -2.34999990       2.37495419E-26
  -2.29999995       4.08311107E-26
  -2.25000000       5.51856952E-26
  -2.20000005       6.07494572E-26
  -2.15000010       5.11518365E-26
  -2.09999990       2.15607010E-26
  -2.04999995      -2.92055720E-26
  -2.00000000      -9.69143232E-26
  -1.95000005      -1.71241340E-25
  -1.89999998      -2.36806947E-25
  -1.85000002      -2.76142412E-25
  -1.79999995      -2.74128326E-25
  -1.75000000      -2.22657371E-25
  -1.70000005      -1.23661022E-25
  -1.64999998       1.14557734E-26
  -1.60000002       1.67218125E-25
  -1.54999995       3.33926078E-25
  -1.50000000       5.19217894E-25
  -1.45000005       7.56192252E-25
  -1.39999998       1.10133778E-24
  -1.35000002       1.61583336E-24
  -1.29999995       2.32688112E-24
  -1.25000000       3.17186810E-24
  -1.20000005       3.93676775E-24
  -1.14999998       4.20935587E-24
  -1.10000002       3.37503804E-24
  -1.04999995       6.84653119E-25
  -1.00000000      -4.58320771E-24
 -0.949999988      -1.28601604E-23
 -0.899999976      -2.39488594E-23
 -0.850000024      -3.66636075E-23
 -0.800000012      -4.85429218E-23
 -0.750000000      -5.57527255E-23
 -0.699999988      -5.33061018E-23
 -0.649999976      -3.57040465E-23
 -0.600000024       1.95543315E-24
 -0.550000012       6.24445190E-23
 -0.500000000       1.44615155E-22
 -0.449999988       2.41648139E-22
 -0.400000006       3.39756359E-22
 -0.349999994       4.17831046E-22
 -0.300000012       4.48515665E-22
 -0.250000000       4.01087505E-22
 -0.200000003       2.46303756E-22
 -0.150000006      -3.69657223E-23
 -0.100000001      -4.53915664E-22
  -5.00000007E-02  -9.85843891E-22
   2.49800181E-16  -1.58351571E-21
   5.00000007E-02  -2.16360338E-21
  0.100000001      -2.61000929E-21
  0.150000006      -2.78165128E-21
  0.200000003      -2.52769007E-21
  0.250000000      -1.71023267E-21
  0.300000012      -2.33281593E-22
  0.349999994       1.92475720E-21
  0.400000006       4.67914666E-21
  0.449999988       7.81288244E-21
  0.500000000       1.09629155E-20
  0.550000012       1.36247374E-20
  0.600000024       1.51806319E-20
  0.649999976       1.49548923E-20
  0.699999988       1.22962733E-20
  0.750000000       6.68394206E-21
  0.800000012      -2.15125221E-21
  0.850000024      -1.41030740E-20
  0.899999976      -2.85805765E-20
  0.949999988      -4.44327724E-20
   1.00000000      -5.99276327E-20
   1.04999995      -7.28038622E-20
   1.10000002      -8.04093226E-20
   1.14999998      -7.99316581E-20
   1.20000005      -6.87168145E-20
   1.25000000      -4.46581145E-20
   1.29999995      -6.62550910E-21
   1.35000002       4.51078584E-20
   1.39999998       1.08494935E-19
   1.45000005       1.79458540E-19
   1.50000000       2.51808823E-19
   1.54999995       3.17386203E-19
   1.60000002       3.66467326E-19
   1.64999998       3.88450297E-19
   1.70000005       3.72806244E-19
   1.75000000       3.10254070E-19
   1.79999995       1.94080237E-19
   1.85000002       2.14953238E-20
   1.89999998      -2.05107071E-19
   1.95000005      -4.77139232E-19
   2.00000000      -7.79208635E-19
   2.04999995      -1.08905121E-18
   2.09999990      -1.37812002E-18
   2.15000010      -1.61290428E-18
   2.20000005      -1.75698828E-18
   2.25000000      -1.77379969E-18
   2.29999995      -1.62991897E-18
   2.34999990      -1.29875214E-18
   2.40000010      -7.64303047E-19
   2.45000005      -2.47288924E-20
   2.50000000       9.04667273E-19
   2.54999995       1.98935635E-18
   2.59999990       3.17474856E-18
   2.65000010       4.38687586E-18
   2.70000005       5.53478377E-18
   2.75000000       6.51470535E-18
   2.79999995       7.21597459E-18
   2.84999990       7.52847433E-18
   2.90000010       7.35127074E-18
   2.95000005       6.60196297E-18
   3.00000000       5.22611346E-18
   3.04999995       3.20609767E-18
   3.09999990       5.68612432E-19
   3.15000010      -2.60989421E-18
   3.20000005      -6.20053719E-18
   3.25000000      -1.00226224E-17
   3.29999995      -1.38479994E-17
   3.34999990      -1.74093114E-17
   3.40000010      -2.04120580E-17
   3.45000005      -2.25501661E-17
   3.50000000      -2.35244872E-17
   3.54999995      -2.30631967E-17
   3.59999990      -2.09432635E-17
   3.65000010      -1.70114094E-17
   3.70000005      -1.12034533E-17
   3.75000000      -3.56035906E-18
   3.79999995       5.76024218E-18
   3.84999990       1.64783758E-17
   3.90000010       2.81929192E-17
   3.95000005       4.03903856E-17
   4.00000000       5.24617400E-17
   4.05000019       6.37270333E-17
   4.09999990       7.34675086E-17
   4.15000010       8.09638825E-17
   4.19999981       8.55392435E-17
   4.25000000       8.66047646E-17
   4.30000019       8.37053112E-17
   4.34999990       7.65619515E-17
   4.40000010       6.51088551E-17
   4.44999981       4.95200905E-17
   4.50000000       3.02246403E-17
   4.55000019       7.90496476E-18
   4.59999990      -1.65221304E-17
   4.65000010      -4.19441881E-17
   4.69999981      -6.71122071E-17
   4.75000000      -9.07196771E-17
   4.80000019      -1.11498653E-16
   4.84999990      -1.28330309E-16
   4.90000010      -1.40364238E-16
   4.94999981      -1.47140039E-16
   5.00000000      -1.48703013E-16
   5.05000019      -1.45706846E-16
   5.09999990      -1.39491781E-16
   5.15000010      -1.32130747E-16
   5.19999981      -1.26436886E-16
   5.25000000      -1.25921797E-16
   5.30000019      -1.34703305E-16
   5.34999990      -1.57359147E-16
   5.40000010      -1.98729600E-16
   5.44999981      -2.63669789E-16
   5.50000000      -3.56763686E-16
   5.55000019      -4.82008969E-16
   5.59999990      -6.42488943E-16
   5.65000010      -8.40049319E-16
   5.69999981      -1.07499312E-15
   5.75000000      -1.34582958E-15
   5.80000019      -1.64907902E-15
   5.84999990      -1.97916829E-15
   5.90000010      -2.32842369E-15
   5.94999981      -2.68718725E-15
   6.00000000      -3.04405176E-15
   6.05000019      -3.38624185E-15
   6.09999990      -3.70011139E-15
   6.15000010      -3.97177561E-15
   6.19999981      -4.18785837E-15
   6.25000000      -4.33631783E-15
   6.30000019      -4.40734578E-15
   6.34999990      -4.39430063E-15
   6.40000010      -4.29463026E-15
   6.44999981      -4.11074280E-15
   6.50000000      -3.85080405E-15
   6.55000019      -3.52939952E-15
   6.59999990      -3.16800529E-15
   6.65000010      -2.79526527E-15
   6.69999981      -2.44702419E-15
   6.75000000      -2.16608517E-15
   6.80000019      -2.00168031E-15
   6.84999990      -2.00865435E-15
   6.90000010      -2.24635086E-15
   6.94999981      -2.77724506E-15
   7.00000000      -3.66529325E-15
   7.05000019      -4.97409807E-15
   7.09999990      -6.76491376E-15
   7.15000010      -9.09449704E-15
   7.19999981      -1.20129270E-14
   7.25000000      -1.55613945E-14
   7.30000019      -1.97701081E-14
   7.34999990      -2.46562092E-14
   7.40000010      -3.02219289E-14
   7.44999981      -3.64529336E-14
   7.50000000      -4.33167669E-14
   7.55000019      -5.07617426E-14
   7.59999990      -5.87158631E-14
   7.65000010      -6.70861817E-14
   7.69999981      -7.57581660E-14
   7.75000000      -8.45953082E-14
   7.80000019      -9.34388268E-14
   7.84999990      -1.02107335E-13
   7.90000010      -1.10396542E-13
   7.94999981      -1.18078710E-13
   8.00000000      -1.24901866E-13
   8.05000019      -1.30588682E-13
   8.10000038      -1.34834635E-13
   8.14999962      -1.37305897E-13
   8.19999981      -1.37636145E-13
   8.25000000      -1.35422814E-13
   8.30000019      -1.30221964E-13
   8.35000038      -1.21542831E-13
   8.39999962      -1.08840129E-13
   8.44999981      -9.15062974E-14
   8.50000000      -6.88612578E-14
   8.55000019      -4.01414978E-14
   8.60000038      -4.48750602E-15
   8.64999962       3.90702553E-14
   8.69999981       9.16268404E-14
   8.75000000       1.54421520E-13
   8.80000019       2.28855102E-13
   8.85000038       3.16511520E-13
   8.89999962       4.19180532E-13
   8.94999981       5.38880952E-13
   9.00000000       6.77888464E-13
   9.05000019       8.38761786E-13
   9.10000038       1.02437275E-12
   9.14999962       1.23793987E-12
   9.19999981       1.48306031E-12
   9.25000000       1.76374204E-12
   9.30000019       2.08444676E-12
   9.35000038       2.45012647E-12
   9.39999962       2.86626213E-12
   9.44999981       3.33891140E-12
   9.50000000       3.87474991E-12
   9.55000019       4.48111600E-12
   9.60000038       5.16606202E-12
   9.64999962       5.93839951E-12
   9.69999981       6.80775618E-12
   9.75000000       7.78461757E-12
   9.80000019       8.88039642E-12
   9.85000038       1.01074704E-11
   9.89999962       1.14792455E-11
   9.94999981       1.30101988E-11
   10.0000000       1.47159663E-11
   10.0500002       1.66133669E-11
   10.1000004       1.87204731E-11
   10.1499996       2.10566738E-11
   10.1999998       2.36427058E-11
   10.2500000       2.65007235E-11
   10.3000002       2.96543727E-11
   10.3500004       3.31288469E-11
   10.3999996       3.69508625E-11
   10.4499998       4.11487962E-11
   10.5000000       4.57526864E-11
   10.5500002       5.07943444E-11
   10.6000004       5.63072748E-11
   10.6499996       6.23267896E-11
   10.6999998       6.88901089E-11
   10.7500000       7.60362676E-11
   10.8000002       8.38061912E-11
   10.8500004       9.22427343E-11
   10.8999996       1.01390715E-10
   10.9499998       1.11296930E-10
   11.0000000       1.22009999E-10
   11.0500002       1.33580619E-10
   11.1000004       1.46061316E-10
   11.1499996       1.59506727E-10
   11.1999998       1.73973225E-10
   11.2500000       1.89519123E-10
   11.3000002       2.06204581E-10
   11.3500004       2.24091398E-10
   11.3999996       2.43243370E-10
   11.4499998       2.63725541E-10
   11.5000000       2.85604984E-10
   11.5500002       3.08950088E-10
   11.6000004       3.33830602E-10
   11.6499996       3.60317498E-10
   11.6999998       3.88482968E-10
   11.7500000       4.18400425E-10
   11.8000002       4.50144005E-10
   11.8500004       4.83788842E-10
   11.8999996       5.19410293E-10
   11.9499998       5.57084434E-10
   12.0000000       5.96888095E-10
   12.0500002       6.38897268E-10
   12.1000004       6.83188728E-10
   12.1499996       7.29838801E-10
   12.1999998       7.78923148E-10
   12.2500000       8.30517211E-10
   12.3000002       8.84695428E-10
   12.3500004       9.41531297E-10
   12.3999996       1.00109687E-09
   12.4499998       1.06346332E-09
   12.5000000       1.12869958E-09
   12.5500002       1.19687338E-09
   12.6000004       1.26805011E-09
   12.6499996       1.34229272E-09
   12.6999998       1.41966194E-09
   12.7500000       1.50021562E-09
   12.8000002       1.58400915E-09
   12.8500004       1.67109449E-09
   12.8999996       1.76151982E-09
   12.9499998       1.85533067E-09
   13.0000000       1.95256855E-09
   13.0500002       2.05327066E-09
   13.1000004       2.15747042E-09
   13.1499996       2.26519625E-09
   13.1999998       2.37647280E-09
   13.2500000       2.49131937E-09
   13.3000002       2.60974975E-09
   13.3500004       2.73177303E-09
   13.3999996       2.85739410E-09
   13.4499998       2.98660985E-09
   13.5000000       3.11941206E-09
   13.5500002       3.25578720E-09
   13.6000004       3.39571415E-09
   13.6499996       3.53916652E-09
   13.6999998       3.68611053E-09
   13.7500000       3.83650622E-09
   13.8000002       3.99030453E-09
   13.8500004       4.14745127E-09
   13.8999996       4.30788338E-09
   13.9499998       4.47153070E-09
   14.0000000       4.63831551E-09
   14.0500002       4.80815077E-09
   14.1000004       4.98094321E-09
   14.1499996       5.15658938E-09
   14.1999998       5.33497868E-09
   14.2500000       5.51599166E-09
   14.3000002       5.69949954E-09
   14.3500004       5.88536508E-09
   14.3999996       6.07344264E-09
   14.4499998       6.26357677E-09
   14.5000000       6.45560361E-09
   14.5500002       6.64934996E-09
   14.6000004       6.84463419E-09
   14.6499996       7.04126490E-09
   14.6999998       7.23904181E-09
   14.7500000       7.43775530E-09
   14.8000002       7.63718688E-09
   14.8500004       7.83711140E-09
   14.8999996       8.03728994E-09
   14.9499998       8.23747826E-09
   15.0000000       8.43742320E-09
   15.0500002       8.63686367E-09
   15.1000004       8.83552786E-09
   15.1499996       9.03313868E-09
   15.1999998       9.22941013E-09
   15.2500000       9.42404643E-09
   15.3000002       9.61674562E-09
   15.3500004       9.80719861E-09
   15.3999996       9.99508920E-09
   15.4499998       1.01800941E-08
   15.5000000       1.03618829E-08
   15.5500002       1.05401181E-08
   15.6000004       1.07144595E-08
   15.6499996       1.08845573E-08
   15.6999998       1.10500595E-08
   15.7500000       1.12106067E-08
   15.8000002       1.13658354E-08
   15.8500004       1.15153806E-08
   15.8999996       1.16588694E-08
   15.9499998       1.17959296E-08
   16.0000000       1.19261827E-08
   16.0499992       1.20492496E-08
   16.1000004       1.21647483E-08
   16.1499996       1.22722961E-08
   16.2000008       1.23715083E-08
   16.2500000       1.24620030E-08
   16.2999992       1.25433939E-08
   16.3500004       1.26152999E-08
   16.3999996       1.26773383E-08
   16.4500008       1.27291280E-08
   16.5000000       1.27702942E-08
   16.5499992       1.28004611E-08
   16.6000004       1.28192585E-08
   16.6499996       1.28263205E-08
   16.7000008       1.28212871E-08
   16.7500000       1.28038060E-08
   16.7999992       1.27735245E-08
   16.8500004       1.27301059E-08
   16.8999996       1.26732145E-08
   16.9500008       1.26025279E-08
   17.0000000       1.25177291E-08
   17.0499992       1.24185151E-08
   17.1000004       1.23045911E-08
   17.1499996       1.21756720E-08
   17.2000008       1.20314878E-08
   17.2500000       1.18717800E-08
   17.2999992       1.16963017E-08
   17.3500004       1.15048202E-08
   17.3999996       1.12971206E-08
   17.4500008       1.10729985E-08
   17.5000000       1.08322666E-08
   17.5499992       1.05747544E-08
   17.6000004       1.03003073E-08
   17.6499996       1.00087876E-08
   17.7000008       9.70007541E-09
   17.7500000       9.37406774E-09
   17.7999992       9.03068109E-09
   17.8500004       8.66985328E-09
   17.8999996       8.29153546E-09
   17.9500008       7.89570453E-09
   18.0000000       7.48235340E-09
   18.0499992       7.05149761E-09
   18.1000004       6.60317356E-09
   18.1499996       6.13743811E-09
   18.2000008       5.65436942E-09
   18.2500000       5.15406828E-09
   18.2999992       4.63665817E-09
   18.3500004       4.10228251E-09
   18.3999996       3.55111029E-09
   18.4500008       2.98333336E-09
   18.5000000       2.39916598E-09
   18.5499992       1.79884552E-09
   18.6000004       1.18263299E-09
   18.6499996       5.50815504E-10
   18.7000008      -9.62979696E-11
   18.7500000      -7.58372198E-10
   18.7999992      -1.43504808E-09
   18.8500004      -2.12594342E-09
   18.8999996      -2.83064572E-09
   18.9500008      -3.54872132E-09
   19.0000000      -4.27971170E-09
   19.0499992      -5.02313213E-09
   19.1000004      -5.77847326E-09
   19.1499996      -6.54519994E-09
   19.2000008      -7.32274730E-09
   19.2500000      -8.11053180E-09
   19.2999992      -8.90793839E-09
   19.3500004      -9.71433511E-09
   19.3999996      -1.05290496E-08
   19.4500008      -1.13513927E-08
   19.5000000      -1.21806520E-08
   19.5499992      -1.30160824E-08
   19.6000004      -1.38569192E-08
   19.6499996      -1.47023718E-08
   19.7000008      -1.55516169E-08
   19.7500000      -1.64038081E-08
   19.7999992      -1.72580830E-08
   19.8500004      -1.81135391E-08
   19.8999996      -1.89692599E-08
   19.9500008      -1.98242969E-08
   20.0000000      -2.06776871E-08
   20.0499992      -2.15284199E-08
   20.1000004      -2.23754864E-08
   20.1499996      -2.32178365E-08
   20.2000008      -2.40543976E-08
   20.2500000      -2.48840717E-08
   20.2999992      -2.57057469E-08
   20.3500004      -2.65182791E-08
   20.3999996      -2.73204996E-08
   20.4500008      -2.81112200E-08
   20.5000000      -2.88892288E-08
   20.5499992      -2.96532878E-08
   20.6000004      -3.04021412E-08
   20.6499996      -3.11345154E-08
   20.7000008      -3.18491153E-08
   20.7500000      -3.25446194E-08
   20.7999992      -3.32196883E-08
   20.8500004      -3.38729720E-08
   20.8999996      -3.45030990E-08
   20.9500008      -3.51086911E-08
   21.0000000      -3.56883341E-08
   21.0499992      -3.62406318E-08
   21.1000004      -3.67641526E-08
   21.1499996      -3.72574576E-08
   21.2000008      -3.77191149E-08
   21.2500000      -3.81476681E-08
   21.2999992      -3.85416747E-08
   21.3500004      -3.88996746E-08
   21.3999996      -3.92202359E-08
   21.4500008      -3.95019057E-08
   21.5000000      -3.97432487E-08
   21.5499992      -3.99428330E-08
   21.6000004      -4.00992484E-08
   21.6499996      -4.02110985E-08
   21.7000008      -4.02770084E-08
   21.7500000      -4.02956246E-08
   21.7999992      -4.02656148E-08
   21.8500004      -4.01857179E-08
   21.8999996      -4.00546512E-08
   21.9500008      -3.98712174E-08
   22.0000000      -3.96342443E-08
   22.0499992      -3.93426056E-08
   22.1000004      -3.89952604E-08
   22.1499996      -3.85911818E-08
   22.2000008      -3.81294392E-08
   22.2500000      -3.76091549E-08
   22.2999992      -3.70295332E-08
   22.3500004      -3.63898494E-08
   22.3999996      -3.56894745E-08
   22.4500008      -3.49278508E-08
   22.5000000      -3.41045414E-08
   22.5499992      -3.32191696E-08
   22.6000004      -3.22714833E-08
   22.6499996      -3.12613508E-08
   22.7000008      -3.01887297E-08
   22.7500000      -2.90536928E-08
   22.7999992      -2.78564514E-08
   22.8500004      -2.65973323E-08
   22.8999996      -2.52767727E-08
   22.9500008      -2.38953692E-08
   23.0000000      -2.24538415E-08
   23.0499992      -2.09530402E-08
   23.1000004      -1.93939691E-08
   23.1499996      -1.77777721E-08
   23.2000008      -1.61057212E-08
   23.2500000      -1.43792542E-08
   23.2999992      -1.25999504E-08
   23.3500004      -1.07695257E-08
   23.3999996      -8.88984886E-09
   23.4500008      -6.96294489E-09
   23.5000000      -4.99096986E-09
   23.5499992      -2.97624103E-09
   23.6000004      -9.21199172E-10
   23.6499996       1.17155707E-09
   23.7000008       3.29930061E-09
   23.7500000       5.45917045E-09
   23.7999992       7.64816832E-09
   23.8500004       9.86317783E-09
   23.8999996       1.21009611E-08
   23.9500008       1.43581644E-08
   24.0000000       1.66313310E-08
   24.0499992       1.89168876E-08
   24.1000004       2.12111768E-08
   24.1499996       2.35104576E-08
   24.2000008       2.58108983E-08
   24.2500000       2.81086177E-08
   24.2999992       3.03996437E-08
   24.3500004       3.26799636E-08
   24.3999996       3.49455433E-08
   24.4500008       3.71922759E-08
   24.5000000       3.94160793E-08
   24.5499992       4.16128216E-08
   24.6000004       4.37783889E-08
   24.6499996       4.59086671E-08
   24.7000008       4.79995670E-08
   24.7500000       5.00470456E-08
   24.7999992       5.20470920E-08
   24.8500004       5.39957519E-08
   24.8999996       5.58891102E-08
   24.9500008       5.77233727E-08
   25.0000000       5.94948126E-08
   25.0499992       6.11998061E-08
   25.1000004       6.28348431E-08
   25.1499996       6.43965308E-08
   25.2000008       6.58816006E-08
   25.2500000       6.72869120E-08
   25.2999992       6.86095021E-08
   25.3500004       6.98465357E-08
   25.3999996       7.09953767E-08
   25.4500008       7.20535454E-08
   25.5000000       7.30187395E-08
   25.5499992       7.38888346E-08
   25.6000004       7.46619122E-08
   25.6499996       7.53362599E-08
   25.7000008       7.59103571E-08
   25.7500000       7.63829036E-08
   25.7999992       7.67527766E-08
   25.8500004       7.70190951E-08
   25.8999996       7.71811699E-08
   25.9500008       7.72385391E-08
   26.0000000       7.71909683E-08
   26.0499992       7.70384077E-08
   26.1000004       7.67810491E-08
   26.1499996       7.64192833E-08
   26.2000008       7.59536860E-08
   26.2500000       7.53850458E-08
   26.2999992       7.47143858E-08
   26.3500004       7.39428501E-08
   26.3999996       7.30718313E-08
   26.4500008       7.21028854E-08
   26.5000000       7.10377037E-08
   26.5499992       6.98781903E-08
   26.6000004       6.86263562E-08
   26.6499996       6.72844038E-08
   26.7000008       6.58546284E-08
   26.7500000       6.43394600E-08
   26.7999992       6.27414352E-08
   26.8500004       6.10632327E-08
   26.8999996       5.93075420E-08
   26.9500008       5.74772159E-08
   27.0000000       5.55751143E-08
   27.0499992       5.36041682E-08
   27.1000004       5.15673335E-08
   27.1499996       4.94676051E-08
   27.2000008       4.73079851E-08
   27.2500000       4.50915145E-08
   27.2999992       4.28211457E-08
   27.3500004       4.04999092E-08
   27.3999996       3.81306933E-08
   27.4500008       3.57164360E-08
   27.5000000       3.32599761E-08
   27.5499992       3.07640740E-08
   27.6000004       2.82314438E-08
   27.6499996       2.56646882E-08
   27.7000008       2.30662973E-08
   27.7500000       2.04386872E-08
   27.7999992       1.77841493E-08
   27.8500004       1.51048649E-08
   27.8999996       1.24028858E-08
   27.9500008       9.68012248E-09
   28.0000000       6.93837698E-09
   28.0499992       4.17925383E-09
   28.1000004       1.40427492E-09
   28.1499996      -1.38518552E-09
   28.2000008      -4.18792245E-09
   28.2500000      -7.00288227E-09
   28.2999992      -9.82913928E-09
   28.3500004      -1.26659385E-08
   28.3999996      -1.55126187E-08
   28.4500008      -1.83686772E-08
   28.5000000      -2.12337774E-08
   28.5499992      -2.41076652E-08
   28.6000004      -2.69902625E-08
   28.6499996      -2.98815763E-08
   28.7000008      -3.27817347E-08
   28.7500000      -3.56909595E-08
   28.7999992      -3.86095742E-08
   28.8500004      -4.15380299E-08
   28.8999996      -4.44767956E-08
   28.9500008      -4.74264823E-08
   29.0000000      -5.03876976E-08
   29.0499992      -5.33611448E-08
   29.1000004      -5.63475631E-08
   29.1499996      -5.93476877E-08
   29.2000008      -6.23623322E-08
   29.2500000      -6.53922854E-08
   29.2999992      -6.84383608E-08
   29.3500004      -7.15013755E-08
   29.3999996      -7.45820898E-08
   29.4500008      -7.76812570E-08
   29.5000000      -8.07996088E-08
   29.5499992      -8.39378202E-08
   29.6000004      -8.70964882E-08
   29.6499996      -9.02762238E-08
   29.7000008      -9.34774889E-08
   29.7500000      -9.67006883E-08
   29.7999992      -9.99461918E-08
   29.8500004      -1.03214234E-07
   29.8999996      -1.06504970E-07
   29.9500008      -1.09818451E-07
   30.0000000      -1.13154613E-07
   30.0499992      -1.16513334E-07
   30.1000004      -1.19894338E-07
   30.1499996      -1.23297269E-07
   30.2000008      -1.26721645E-07
   30.2500000      -1.30166882E-07
   30.2999992      -1.33632270E-07
   30.3500004      -1.37117055E-07
   30.3999996      -1.40620244E-07
   30.4500008      -1.44140856E-07
   30.5000000      -1.47677795E-07
   30.5499992      -1.51229841E-07
   30.6000004      -1.54795686E-07
   30.6499996      -1.58373965E-07
   30.7000008      -1.61963214E-07
   30.7500000      -1.65561886E-07
   30.7999992      -1.69168430E-07
   30.8500004      -1.72781171E-07
   30.8999996      -1.76398402E-07
   30.9500008      -1.80018461E-07
   31.0000000      -1.83639528E-07
   31.0499992      -1.87259886E-07
   31.1000004      -1.90877728E-07
   31.1499996      -1.94491250E-07
   31.2000008      -1.98098718E-07
   31.2500000      -2.01698398E-07
   31.2999992      -2.05288586E-07
   31.3500004      -2.08867604E-07
   31.3999996      -2.12433889E-07
   31.4500008      -2.15985850E-07
   31.5000000      -2.19522050E-07
   31.5499992      -2.23041113E-07
   31.6000004      -2.26541729E-07
   31.6499996      -2.30022735E-07
   31.7000008      -2.33483021E-07
   31.7500000      -2.36921608E-07
   31.7999992      -2.40337698E-07
   31.8500004      -2.43730568E-07
   31.8999996      -2.47099649E-07
   31.9500008      -2.50444458E-07
   32.0000000      -2.53764682E-07
   32.0499992      -2.57060265E-07
   32.0999985      -2.60331149E-07
   32.1500015      -2.63577476E-07
   32.2000008      -2.66799532E-07
   32.2500000      -2.69997741E-07
   32.2999992      -2.73172702E-07
   32.3499985      -2.76325153E-07
   32.4000015      -2.79455946E-07
   32.4500008      -2.82566077E-07
   32.5000000      -2.85656654E-07
   32.5499992      -2.88728955E-07
   32.5999985      -2.91784318E-07
   32.6500015      -2.94824247E-07
   32.7000008      -2.97850249E-07
   32.7500000      -3.00864059E-07
   32.7999992      -3.03867381E-07
   32.8499985      -3.06862034E-07
   32.9000015      -3.09849895E-07
   32.9500008      -3.12832896E-07
   33.0000000      -3.15812969E-07
   33.0499992      -3.18792047E-07
   33.0999985      -3.21772205E-07
   33.1500015      -3.24755348E-07
   33.2000008      -3.27743436E-07
   33.2500000      -3.30738487E-07
   33.2999992      -3.33742321E-07
   33.3499985      -3.36756784E-07
   33.4000015      -3.39783696E-07
   33.4500008      -3.42824734E-07
   33.5000000      -3.45881489E-07
   33.5499992      -3.48955439E-07
   33.5999985      -3.52048005E-07
   33.6500015      -3.55160410E-07
   33.7000008      -3.58293789E-07
   33.7500000      -3.61449082E-07
   33.7999992      -3.64627141E-07
   33.8499985      -3.67828591E-07
   33.9000015      -3.71053886E-07
   33.9500008      -3.74303340E-07
   34.0000000      -3.77576981E-07
   34.0499992      -3.80874781E-07
   34.0999985      -3.84196369E-07
   34.1500015      -3.87541235E-07
   34.2000008      -3.90908667E-07
   34.2500000      -3.94297729E-07
   34.2999992      -3.97707254E-07
   34.3499985      -4.01135821E-07
   34.4000015      -4.04581897E-07
   34.4500008      -4.08043576E-07
   34.5000000      -4.11518869E-07
   34.5499992      -4.15005502E-07
   34.5999985      -4.18500974E-07
   34.6500015      -4.22002614E-07
   34.7000008      -4.25507494E-07
   34.7500000      -4.29012573E-07
   34.7999992      -4.32514469E-07
   34.8499985      -4.36009742E-07
   34.9000015      -4.39494727E-07
   34.9500008      -4.42965501E-07
   35.0000000      -4.46418085E-07
   35.0499992      -4.49848244E-07
   35.0999985      -4.53251687E-07
   35.1500015      -4.56623923E-07
   35.2000008      -4.59960376E-07
   35.2500000      -4.63256242E-07
   35.2999992      -4.66506748E-07
   35.3499985      -4.69706947E-07
   35.4000015      -4.72851781E-07
   35.4500008      -4.75936247E-07
   35.5000000      -4.78955087E-07
   35.5499992      -4.81903157E-07
   35.5999985      -4.84775285E-07
   35.6500015      -4.87566126E-07
   35.7000008      -4.90270509E-07
   35.7500000      -4.92883089E-07
   35.7999992      -4.95398695E-07
   35.8499985      -4.97812152E-07
   35.9000015      -5.00118233E-07
   35.9500008      -5.02311877E-07
   36.0000000      -5.04388026E-07
   36.0499992      -5.06341792E-07
   36.0999985      -5.08168284E-07
   36.1500015      -5.09862787E-07
   36.2000008      -5.11420637E-07
   36.2500000      -5.12837346E-07
   36.2999992      -5.14108535E-07
   36.3499985      -5.15230056E-07
   36.4000015      -5.16197758E-07
   36.4500008      -5.17007834E-07
   36.5000000      -5.17656588E-07
   36.5499992      -5.18140553E-07
   36.5999985      -5.18456261E-07
   36.6500015      -5.18600700E-07
   36.7000008      -5.18570914E-07
   36.7500000      -5.18364232E-07
   36.7999992      -5.17978208E-07
   36.8499985      -5.17410513E-07
   36.9000015      -5.16659270E-07
   36.9500008      -5.15722604E-07
   37.0000000      -5.14599094E-07
   37.0499992      -5.13287432E-07
   37.0999985      -5.11786482E-07
   37.1500015      -5.10095617E-07
   37.2000008      -5.08214214E-07
   37.2500000      -5.06141987E-07
   37.2999992      -5.03878994E-07
   37.3499985      -5.01425404E-07
   37.4000015      -4.98781731E-07
   37.4500008      -4.95948768E-07
   37.5000000      -4.92927484E-07
   37.5499992      -4.89719127E-07
   37.5999985      -4.86325121E-07
   37.6500015      -4.82747225E-07
   37.7000008      -4.78987488E-07
   37.7500000      -4.75048097E-07
   37.7999992      -4.70931496E-07
   37.8499985      -4.66640302E-07
   37.9000015      -4.62177439E-07
   37.9500008      -4.57545980E-07
   38.0000000      -4.52749219E-07
   38.0499992      -4.47790597E-07
   38.0999985      -4.42673780E-07
   38.1500015      -4.37402662E-07
   38.2000008      -4.31981164E-07
   38.2500000      -4.26413465E-07
   38.2999992      -4.20703827E-07