  -4.50000000       0.00000000    
  -4.44999981       0.00000000    
  -4.40000010       0.00000000    
  -4.34999990       0.00000000    
  -4.30000019       0.00000000    
  -4.25000000       0.00000000    
  -4.19999981       1.51068803E-35
  -4.15000010       1.08801105E-34
  -4.09999990       2.82095915E-34
  -4.05000019      -2.33304014E-34
  -4.00000000      -4.59084984E-33
  -3.95000005      -1.96771142E-32
  -3.90000010      -5.31510056E-32
  -3.84999990      -1.00563365E-31
  -3.79999995      -1.22204898E-31
  -3.75000000      -2.59188629E-32
  -3.70000005       3.04357187E-31
  -3.65000010       8.84261394E-31
  -3.59999990       1.39468154E-30
  -3.54999995       9.30696994E-31
  -3.50000000      -2.01052059E-30
  -3.45000005      -8.92008973E-30
  -3.40000010      -1.97330902E-29
  -3.34999990      -3.04712451E-29
  -3.29999995      -3.10391085E-29
  -3.25000000      -5.16495178E-30
  -3.20000005       6.49086178E-29
  -3.15000010       1.87023169E-28
  -3.09999990       3.41690883E-28
  -3.04999995       4.64114161E-28
  -3.00000000       4.36730230E-28
  -2.95000005       1.07180505E-28
  -2.90000010      -6.55227800E-28
  -2.84999990      -1.86245380E-27
  -2.79999995      -3.28900417E-27
  -2.75000000      -4.37791070E-27
  -2.70000005      -4.24168275E-27
  -2.65000010      -1.83424200E-27
  -2.59999990       3.65827774E-27
  -2.54999995       1.22314093E-26
  -2.50000000       2.24143702E-26
  -2.45000005       3.08167465E-26
  -2.40000010       3.22151226E-26
  -2.34999990       2.05189917E-26
  -2.29999995      -9.20094311E-27
  -2.25000000      -5.77716121E-26
  -2.20000005      -1.18688289E-25
  -2.15000010      -1.75730994E-25
  -2.09999990      -2.02921501E-25
  -2.04999995      -1.68302217E-25
  -2.00000000      -4.24328034E-26
  -1.95000005       1.88751131E-25
  -1.89999998       5.08887810E-25
  -1.85000002       8.58124963E-25
  -1.79999995       1.12782625E-24
  -1.75000000       1.16927143E-24
  -1.70000005       8.21116442E-25
  -1.64999998      -4.33696805E-26
  -1.60000002      -1.45422544E-24
  -1.54999995      -3.28003059E-24
  -1.50000000      -5.17942760E-24
  -1.45000005      -6.59208736E-24
  -1.39999998      -6.79137059E-24
  -1.35000002      -5.01309430E-24
  -1.29999995      -6.59440780E-25
  -1.25000000       6.44466149E-24
  -1.20000005       1.57897468E-23
  -1.14999998       2.59833049E-23
  -1.10000002       3.46952323E-23
  -1.04999995       3.88236001E-23
  -1.00000000       3.49315813E-23
 -0.949999988       1.99585312E-23
 -0.899999976      -7.85777958E-24
 -0.850000024      -4.79854401E-23
 -0.800000012      -9.67349520E-23
 -0.750000000      -1.46778022E-22
 -0.699999988      -1.87300305E-22
 -0.649999976      -2.04985948E-22
 -0.600000024      -1.85917930E-22
 -0.550000012      -1.18309307E-22
 -0.500000000       4.22239732E-24
 -0.449999988       1.79326726E-22
 -0.400000006       3.93193998E-22
 -0.349999994       6.19162510E-22
 -0.300000012       8.18350318E-22
 -0.250000000       9.42812627E-22
 -0.200000003       9.41392425E-22
 -0.150000006       7.67976311E-22
 -0.100000001       3.91353037E-22
  -5.00000007E-02  -1.94628848E-22
   2.49800181E-16  -9.62296002E-22
   5.00000007E-02  -1.84465437E-21
  0.100000001      -2.73493375E-21
  0.150000006      -3.49253426E-21
  0.200000003      -3.95597189E-21
  0.250000000      -3.96243222E-21
  0.300000012      -3.37238002E-21
  0.349999994      -2.09656459E-21
  0.400000006      -1.21805576E-22
  0.449999988       2.46855393E-21
  0.500000000       5.48366503E-21
  0.550000012       8.62713190E-21
  0.600000024       1.15141191E-20
  0.649999976       1.37039771E-20
  0.699999988       1.47466690E-20
  0.750000000       1.42389271E-20
  0.800000012       1.18842347E-20
  0.850000024       7.54922428E-21
  0.899999976       1.30865082E-21
  0.949999988      -6.52851087E-21
   1.00000000      -1.54175238E-20
   1.04999995      -2.46042353E-20
   1.10000002      -3.31791837E-20
   1.14999998      -4.01558415E-20
   1.20000005      -4.45657546E-20
   1.25000000      -4.55610080E-20
   1.29999995      -4.25120364E-20
   1.35000002      -3.50891696E-20
   1.39999998      -2.33172473E-20
   1.45000005      -7.59514250E-21
   1.50000000       1.13236114E-20
   1.54999995       3.23887674E-20
   1.60000002       5.43444350E-20
   1.64999998       7.58442550E-20
   1.70000005       9.55775662E-20
   1.75000000       1.12392545E-19
   1.79999995       1.25401447E-19
   1.85000002       1.34055811E-19
   1.89999998       1.38181465E-19
   1.95000005       1.37967975E-19
   2.00000000       1.33909723E-19
   2.04999995       1.26704502E-19
   2.09999990       1.17112490E-19
   2.15000010       1.05788109E-19
   2.20000005       9.30932326E-20
   2.25000000       7.89061351E-20
   2.29999995       6.24354375E-20
   2.34999990       4.20563988E-20
   2.40000010       1.51764394E-20
   2.45000005      -2.18472682E-20
   2.50000000      -7.37250700E-20
   2.54999995      -1.46164546E-19
   2.59999990      -2.45691073E-19
   2.65000010      -3.79325616E-19
   2.70000005      -5.54107199E-19
   2.75000000      -7.76425741E-19
   2.79999995      -1.05117109E-18
   2.84999990      -1.38068325E-18
   2.90000010      -1.76354162E-18
   2.95000005      -2.19323569E-18
   3.00000000      -2.65680487E-18
   3.04999995      -3.13355496E-18
   3.09999990      -3.59396162E-18
   3.15000010      -3.99897779E-18
   3.20000005      -4.29987466E-18
   3.25000000      -4.43880544E-18
   3.29999995      -4.35029587E-18
   3.34999990      -3.96373824E-18
   3.40000010      -3.20706485E-18
   3.45000005      -2.01166396E-18
   3.50000000      -3.18387272E-19
   3.54999995       1.91522566E-18
   3.59999990       4.70691618E-18
   3.65000010       8.04094415E-18
   3.70000005       1.18589931E-17
   3.75000000       1.60513306E-17
   3.79999995       2.04486112E-17
   3.84999990       2.48148890E-17
   3.90000010       2.88427391E-17
   3.95000005       3.21509652E-17
   4.00000000       3.42859416E-17
   4.05000019       3.47272292E-17
   4.09999990       3.28984619E-17
   4.15000010       2.81838666E-17
   4.19999981       1.99516725E-17
   4.25000000       7.58439091E-18
   4.30000019      -9.48356286E-18
   4.34999990      -3.17207982E-17
   4.40000010      -5.94465126E-17
   4.44999981      -9.27736327E-17
   4.50000000      -1.31545143E-16
   4.55000019      -1.75270413E-16
   4.59999990      -2.23060118E-16
   4.65000010      -2.73565649E-16
   4.69999981      -3.24926153E-16
   4.75000000      -3.74728435E-16
   4.80000019      -4.19983314E-16
   4.84999990      -4.57125153E-16
   4.90000010      -4.82038774E-16
   4.94999981      -4.90117933E-16
   5.00000000      -4.76360953E-16
   5.05000019      -4.35504293E-16
   5.09999990      -3.62198462E-16
   5.15000010      -2.51221237E-16
   5.19999981      -9.77320180E-17
   5.25000000       1.02443897E-16
   5.30000019       3.52500173E-16
   5.34999990       6.54328346E-16
   5.40000010       1.00818245E-15
   5.44999981       1.41236815E-15
   5.50000000       1.86294457E-15
   5.55000019       2.35349947E-15
   5.59999990       2.87497022E-15
   5.65000010       3.41557036E-15
   5.69999981       3.96082220E-15
   5.75000000       4.49371434E-15
   5.80000019       4.99501046E-15
   5.84999990       5.44371431E-15
   5.90000010       5.81769799E-15
   5.94999981       6.09450073E-15
   6.00000000       6.25228730E-15
   6.05000019       6.27096099E-15
   6.09999990       6.13340115E-15
   6.15000010       5.82681207E-15
   6.19999981       5.34413542E-15
   6.25000000       4.68547456E-15
   6.30000019       3.85952172E-15
   6.34999990       2.88487076E-15
   6.40000010       1.79122396E-15
   6.44999981       6.20371854E-16
   6.50000000      -5.73055588E-16
   6.55000019      -1.72118757E-15
   6.59999990      -2.74285023E-15
   6.65000010      -3.54394392E-15
   6.69999981      -4.01826120E-15
   6.75000000      -4.04879377E-15
   6.80000019      -3.50952093E-15
   6.84999990      -2.26772235E-15
   6.90000010      -1.86742694E-16
   6.94999981       2.87077719E-15
   7.00000000       7.03921013E-15
   7.05000019       1.24459735E-14
   7.09999990       1.92071921E-14
   7.15000010       2.74231660E-14
   7.19999981       3.71737350E-14
   7.25000000       4.85134732E-14
   7.30000019       6.14669922E-14
   7.34999990       7.60243173E-14
   7.40000010       9.21363883E-14
   7.44999981       1.09710696E-13
   7.50000000       1.28607520E-13
   7.55000019       1.48635810E-13
   7.59999990       1.69549799E-13
   7.65000010       1.91045354E-13
   7.69999981       2.12756936E-13
   7.75000000       2.34253914E-13
   7.80000019       2.55037365E-13
   7.84999990       2.74536009E-13
   7.90000010       2.92101955E-13
   7.94999981       3.07005289E-13
   8.00000000       3.18428226E-13
   8.05000019       3.25457434E-13
   8.10000038       3.27075118E-13
   8.14999962       3.22148070E-13
   8.19999981       3.09415064E-13
   8.25000000       2.87470839E-13
   8.30000019       2.54748561E-13
   8.35000038       2.09498190E-13
   8.39999962       1.49762499E-13
   8.44999981       7.33490823E-14
   8.50000000      -2.22013468E-14
   8.55000019      -1.39649956E-13
   8.60000038      -2.82100488E-13
   8.64999962      -4.53042280E-13
   8.69999981      -6.56400552E-13
   8.75000000      -8.96587654E-13
   8.80000019      -1.17856213E-12
   8.85000038      -1.50789309E-12
   8.89999962      -1.89082647E-12
   8.94999981      -2.33435862E-12
   9.00000000      -2.84631780E-12
   9.05000019      -3.43544247E-12
   9.10000038      -4.11148155E-12
   9.14999962      -4.88527578E-12
   9.19999981      -5.76886802E-12
   9.25000000      -6.77561045E-12
   9.30000019      -7.92026687E-12
   9.35000038      -9.21914021E-12
   9.39999962      -1.06901805E-11
   9.44999981      -1.23531350E-11
   9.50000000      -1.42296591E-11
   9.55000019      -1.63434596E-11
   9.60000038      -1.87204505E-11
   9.64999962      -2.13888785E-11
   9.69999981      -2.43794724E-11
   9.75000000      -2.77256031E-11
   9.80000019      -3.14634638E-11
   9.85000038      -3.56321569E-11
   9.89999962      -4.02739335E-11
   9.94999981      -4.54343022E-11
   10.0000000      -5.11621717E-11
   10.0500002      -5.75100731E-11
   10.1000004      -6.45342460E-11
   10.1499996      -7.22947882E-11
   10.1999998      -8.08558845E-11
   10.2500000      -9.02858760E-11
   10.3000002      -1.00657455E-10
   10.3500004      -1.12047656E-10
   10.3999996      -1.24538171E-10
   10.4499998      -1.38215328E-10
   10.5000000      -1.53170227E-10
   10.5500002      -1.69498859E-10
   10.6000004      -1.87302243E-10
   10.6499996      -2.06686404E-10
   10.6999998      -2.27762378E-10
   10.7500000      -2.50646365E-10
   10.8000002      -2.75459794E-10
   10.8500004      -3.02329217E-10
   10.8999996      -3.31386335E-10
   10.9499998      -3.62768204E-10
   11.0000000      -3.96616767E-10
   11.0500002      -4.33079211E-10
   11.1000004      -4.72307637E-10
   11.1499996      -5.14458753E-10
   11.1999998      -5.59694402E-10
   11.2500000      -6.08181006E-10
   11.3000002      -6.60089483E-10
   11.3500004      -7.15594861E-10
   11.3999996      -7.74876330E-10
   11.4499998      -8.38117076E-10
   11.5000000      -9.05503672E-10
   11.5500002      -9.77226189E-10
   11.6000004      -1.05347764E-09
   11.6499996      -1.13445364E-09
   11.6999998      -1.22035249E-09
   11.7500000      -1.31137390E-09
   11.8000002      -1.40771983E-09
   11.8500004      -1.50959290E-09
   11.8999996      -1.61719693E-09
   11.9499998      -1.73073578E-09
   12.0000000      -1.85041305E-09
   12.0500002      -1.97643213E-09
   12.1000004      -2.10899431E-09
   12.1499996      -2.24830088E-09
   12.1999998      -2.39455011E-09
   12.2500000      -2.54793764E-09
   12.3000002      -2.70865597E-09
   12.3500004      -2.87689383E-09
   12.3999996      -3.05283598E-09
   12.4499998      -3.23666183E-09
   12.5000000      -3.42854589E-09
   12.5500002      -3.62865582E-09
   12.6000004      -3.83715415E-09
   12.6499996      -4.05419476E-09
   12.6999998      -4.27992530E-09
   12.7500000      -4.51448345E-09
   12.8000002      -4.75800022E-09
   12.8500004      -5.01059416E-09
   12.8999996      -5.27237631E-09
   12.9499998      -5.54344570E-09
   13.0000000      -5.82389070E-09
   13.0500002      -6.11378681E-09
   13.1000004      -6.41319664E-09
   13.1499996      -6.72217082E-09
   13.1999998      -7.04074532E-09
   13.2500000      -7.36894146E-09
   13.3000002      -7.70676678E-09
   13.3500004      -8.05420797E-09
   13.3999996      -8.41124059E-09
   13.4499998      -8.77782114E-09
   13.5000000      -9.15388743E-09
   13.5500002      -9.53935775E-09
   13.6000004      -9.93413085E-09
   13.6499996      -1.03380886E-08
   13.6999998      -1.07510854E-08
   13.7500000      -1.11729603E-08
   13.8000002      -1.16035253E-08
   13.8500004      -1.20425714E-08
   13.8999996      -1.24898634E-08
   13.9499998      -1.29451427E-08
   14.0000000      -1.34081271E-08
   14.0500002      -1.38785046E-08
   14.1000004      -1.43559387E-08
   14.1499996      -1.48400634E-08
   14.1999998      -1.53304835E-08
   14.2500000      -1.58267799E-08
   14.3000002      -1.63284959E-08
   14.3500004      -1.68351519E-08
   14.3999996      -1.73462347E-08
   14.4499998      -1.78611987E-08
   14.5000000      -1.83794686E-08
   14.5500002      -1.89004332E-08
   14.6000004      -1.94234548E-08
   14.6499996      -1.99478585E-08
   14.6999998      -2.04729389E-08
   14.7500000      -2.09979572E-08
   14.8000002      -2.15221387E-08
   14.8500004      -2.20446825E-08
   14.8999996      -2.25647447E-08
   14.9499998      -2.30814585E-08
   15.0000000      -2.35939179E-08
   15.0500002      -2.41011922E-08
   15.1000004      -2.46023095E-08
   15.1499996      -2.50962735E-08
   15.1999998      -2.55820574E-08
   15.2500000      -2.60586024E-08
   15.3000002      -2.65248215E-08
   15.3500004      -2.69796008E-08
   15.3999996      -2.74217999E-08
   15.4499998      -2.78502519E-08
   15.5000000      -2.82637664E-08
   15.5500002      -2.86611286E-08
   15.6000004      -2.90411073E-08
   15.6499996      -2.94024431E-08
   15.6999998      -2.97438660E-08
   15.7500000      -3.00640828E-08
   15.8000002      -3.03617931E-08
   15.8500004      -3.06356753E-08
   15.8999996      -3.08844044E-08
   15.9499998      -3.11066408E-08
   16.0000000      -3.13010382E-08
   16.0499992      -3.14662501E-08
   16.1000004      -3.16009263E-08
   16.1499996      -3.17037099E-08
   16.2000008      -3.17732542E-08
   16.2500000      -3.18082130E-08
   16.2999992      -3.18072466E-08
   16.3500004      -3.17690301E-08
   16.3999996      -3.16922382E-08
   16.4500008      -3.15755706E-08
   16.5000000      -3.14177413E-08
   16.5499992      -3.12174819E-08
   16.6000004      -3.09735420E-08
   16.6499996      -3.06846992E-08
   16.7000008      -3.03497565E-08
   16.7500000      -2.99675413E-08
   16.7999992      -2.95369222E-08
   16.8500004      -2.90567872E-08
   16.8999996      -2.85260704E-08
   16.9500008      -2.79437362E-08
   17.0000000      -2.73087863E-08
   17.0499992      -2.66202722E-08
   17.1000004      -2.58772808E-08
   17.1499996      -2.50789434E-08
   17.2000008      -2.42244411E-08
   17.2500000      -2.33130049E-08
   17.2999992      -2.23439010E-08
   17.3500004      -2.13164615E-08
   17.3999996      -2.02300559E-08
   17.4500008      -1.90841174E-08
   17.5000000      -1.78781256E-08
   17.5499992      -1.66116134E-08
   17.6000004      -1.52841668E-08
   17.6499996      -1.38954324E-08
   17.7000008      -1.24451045E-08
   17.7500000      -1.09329337E-08
   17.7999992      -9.35872801E-09
   17.8500004      -7.72234632E-09
   17.8999996      -6.02370553E-09
   17.9500008      -4.26277724E-09
   18.0000000      -2.43958231E-09
   18.0499992      -5.54203627E-10
   18.1000004       1.39323353E-09
   18.1499996       3.40254314E-09
   18.2000008       5.47349188E-09
   18.2500000       7.60579066E-09
   18.2999992       9.79910375E-09
   18.3500004       1.20530474E-08
   18.3999996       1.43671794E-08
   18.4500008       1.67410210E-08
   18.5000000       1.91740366E-08
   18.5499992       2.16656471E-08
   18.6000004       2.42152289E-08
   18.6499996       2.68221054E-08
   18.7000008       2.94855642E-08
   18.7500000       3.22048379E-08
   18.7999992       3.49791129E-08
   18.8500004       3.78075455E-08
   18.8999996       4.06892298E-08
   18.9500008       4.36232241E-08
   19.0000000       4.66085375E-08
   19.0499992       4.96441324E-08
   19.1000004       5.27289323E-08
   19.1499996       5.58618076E-08
   19.2000008       5.90415787E-08
   19.2500000       6.22670271E-08
   19.2999992       6.55368808E-08
   19.3500004       6.88498076E-08
   19.3999996       7.22044362E-08
   19.4500008       7.55993312E-08
   19.5000000       7.90330077E-08
   19.5499992       8.25039095E-08
   19.6000004       8.60104450E-08
   19.6499996       8.95509444E-08
   19.7000008       9.31236812E-08
   19.7500000       9.67268434E-08
   19.7999992       1.00358577E-07
   19.8500004       1.04016941E-07
   19.8999996       1.07699918E-07
   19.9500008       1.11405420E-07
   20.0000000       1.15131272E-07
   20.0499992       1.18875221E-07
   20.1000004       1.22634916E-07
   20.1499996       1.26407940E-07
   20.2000008       1.30191751E-07
   20.2500000       1.33983747E-07
   20.2999992       1.37781200E-07
   20.3500004       1.41581268E-07
   20.3999996       1.45381065E-07
   20.4500008       1.49177524E-07
   20.5000000       1.52967516E-07
   20.5499992       1.56747788E-07
   20.6000004       1.60514958E-07
   20.6499996       1.64265558E-07
   20.7000008       1.67995964E-07
   20.7500000       1.71702453E-07
   20.7999992       1.75381189E-07
   20.8500004       1.79028191E-07
   20.8999996       1.82639383E-07
   20.9500008       1.86210542E-07
   21.0000000       1.89737321E-07
   21.0499992       1.93215286E-07
   21.1000004       1.96639846E-07
   21.1499996       2.00006312E-07
   21.2000008       2.03309867E-07
   21.2500000       2.06545593E-07
   21.2999992       2.09708460E-07
   21.3500004       2.12793353E-07
   21.3999996       2.15794998E-07
   21.4500008       2.18708081E-07
   21.5000000       2.21527188E-07
   21.5499992       2.24246818E-07
   21.6000004       2.26861388E-07
   21.6499996       2.29365284E-07
   21.7000008       2.31752793E-07
   21.7500000       2.34018202E-07
   21.7999992       2.36155714E-07
   21.8500004       2.38159515E-07
   21.8999996       2.40023809E-07
   21.9500008       2.41742782E-07
   22.0000000       2.43310609E-07
   22.0499992       2.44721491E-07
   22.1000004       2.45969716E-07
   22.1499996       2.47049542E-07
   22.2000008       2.47955398E-07
   22.2500000       2.48681715E-07
   22.2999992       2.49223035E-07
   22.3500004       2.49574043E-07
   22.3999996       2.49729538E-07
   22.4500008       2.49684490E-07
   22.5000000       2.49433981E-07
   22.5499992       2.48973350E-07
   22.6000004       2.48298051E-07
   22.6499996       2.47403790E-07
   22.7000008       2.46286589E-07
   22.7500000       2.44942555E-07
   22.7999992       2.43368220E-07
   22.8500004       2.41560315E-07
   22.8999996       2.39515856E-07
   22.9500008       2.37232271E-07
   23.0000000       2.34707230E-07
   23.0499992       2.31938785E-07
   23.1000004       2.28925359E-07
   23.1499996       2.25665715E-07
   23.2000008       2.22159059E-07
   23.2500000       2.18404921E-07
   23.2999992       2.14403329E-07
   23.3500004       2.10154667E-07
   23.3999996       2.05659774E-07
   23.4500008       2.00919956E-07
   23.5000000       1.95936906E-07
   23.5499992       1.90712811E-07
   23.6000004       1.85250315E-07
   23.6499996       1.79552501E-07
   23.7000008       1.73622951E-07
   23.7500000       1.67465643E-07
   23.7999992       1.61085097E-07
   23.8500004       1.54486244E-07
   23.8999996       1.47674498E-07
   23.9500008       1.40655715E-07
   24.0000000       1.33436174E-07
   24.0499992       1.26022641E-07
   24.1000004       1.18422278E-07
   24.1499996       1.10642674E-07
   24.2000008       1.02691800E-07
   24.2500000       9.45780698E-08
   24.2999992       8.63102230E-08
   24.3500004       7.78973899E-08
   24.3999996       6.93490279E-08
   24.4500008       6.06749353E-08
   24.5000000       5.18852019E-08
   24.5499992       4.29901981E-08
   24.6000004       3.40005677E-08
   24.6499996       2.49271537E-08
   24.7000008       1.57810423E-08
   24.7500000       6.57350663E-09
   24.7999992      -2.68404676E-09
   24.8500004      -1.19800454E-08
   24.8999996      -2.13028635E-08
   24.9500008      -3.06407451E-08
   25.0000000      -3.99819164E-08
   25.0499992      -4.93146040E-08
   25.1000004      -5.86270126E-08
   25.1499996      -6.79074219E-08
   25.2000008      -7.71441577E-08
   25.2500000      -8.63256560E-08
   25.2999992      -9.54404911E-08
   25.3500004      -1.04477394E-07
   25.3999996      -1.13425259E-07
   25.4500008      -1.22273221E-07
   25.5000000      -1.31010651E-07
   25.5499992      -1.39627204E-07
   25.6000004      -1.48112804E-07
   25.6499996      -1.56457730E-07
   25.7000008      -1.64652576E-07
   25.7500000      -1.72688303E-07
   25.7999992      -1.80556285E-07
   25.8500004      -1.88248279E-07
   25.8999996      -1.95756513E-07
   25.9500008      -2.03073625E-07
   26.0000000      -2.10192695E-07
   26.0499992      -2.17107342E-07
   26.1000004      -2.23811597E-07
   26.1499996      -2.30300046E-07
   26.2000008      -2.36567772E-07
   26.2500000      -2.42610355E-07
   26.2999992      -2.48423930E-07
   26.3500004      -2.54005158E-07
   26.3999996      -2.59351197E-07
   26.4500008      -2.64459743E-07
   26.5000000      -2.69329007E-07
   26.5499992      -2.73957767E-07
   26.6000004      -2.78345311E-07
   26.6499996      -2.82491442E-07
   26.7000008      -2.86396443E-07
   26.7500000      -2.90061138E-07
   26.7999992      -2.93486806E-07
   26.8500004      -2.96675182E-07
   26.8999996      -2.99628510E-07
   26.9500008      -3.02349434E-07
   27.0000000      -3.04841052E-07
   27.0499992      -3.07106831E-07
   27.1000004      -3.09150693E-07
   27.1499996      -3.10976873E-07
   27.2000008      -3.12589918E-07
   27.2500000      -3.13994803E-07
   27.2999992      -3.15196701E-07
   27.3500004      -3.16201124E-07
   27.3999996      -3.17013814E-07
   27.4500008      -3.17640684E-07
   27.5000000      -3.18087956E-07
   27.5499992      -3.18361941E-07
   27.6000004      -3.18469063E-07
   27.6499996      -3.18415971E-07
   27.7000008      -3.18209317E-07
   27.7500000      -3.17855864E-07
   27.7999992      -3.17362407E-07
   27.8500004      -3.16735736E-07
   27.8999996      -3.15982675E-07
   27.9500008      -3.15109901E-07
   28.0000000      -3.14124122E-07
   28.0499992      -3.13032018E-07
   28.1000004      -3.11840012E-07
   28.1499996      -3.10554498E-07
   28.2000008      -3.09181672E-07
   28.2500000      -3.07727646E-07
   28.2999992      -3.06198189E-07
   28.3500004      -3.04599013E-07
   28.3999996      -3.02935547E-07
   28.4500008      -3.01212935E-07
   28.5000000      -2.99436181E-07
   28.5499992      -2.97609915E-07
   28.6000004      -2.95738602E-07
   28.6499996      -2.93826304E-07
   28.7000008      -2.91876916E-07
   28.7500000      -2.89893961E-07
   28.7999992      -2.87880653E-07
   28.8500004      -2.85839945E-07
   28.8999996      -2.83774483E-07
   28.9500008      -2.81686567E-07
   29.0000000      -2.79578245E-07
   29.0499992      -2.77451221E-07
   29.1000004      -2.75306945E-07
   29.1499996      -2.73146497E-07
   29.2000008      -2.70970759E-07
   29.2500000      -2.68780269E-07
   29.2999992      -2.66575341E-07
   29.3500004      -2.64356032E-07
   29.3999996      -2.62122086E-07
   29.4500008      -2.59873076E-07
   29.5000000      -2.57608349E-07
   29.5499992      -2.55326995E-07
   29.6000004      -2.53027963E-07
   29.6499996      -2.50710002E-07
   29.7000008      -2.48371663E-07
   29.7500000      -2.46011439E-07
   29.7999992      -2.43627596E-07
   29.8500004      -2.41218316E-07
   29.8999996      -2.38781695E-07
   29.9500008      -2.36315756E-07
   30.0000000      -2.33818454E-07
   30.0499992      -2.31287686E-07
   30.1000004      -2.28721333E-07
   30.1499996      -2.26117280E-07
   30.2000008      -2.23473336E-07
   30.2500000      -2.20787456E-07
   30.2999992      -2.18057522E-07
   30.3500004      -2.15281517E-07
   30.3999996      -2.12457479E-07
   30.4500008      -2.09583519E-07
   30.5000000      -2.06657859E-07
   30.5499992      -2.03678781E-07
   30.6000004      -2.00644706E-07
   30.6499996      -1.97554201E-07
   30.7000008      -1.94405899E-07
   30.7500000      -1.91198652E-07
   30.7999992      -1.87931391E-07
   30.8500004      -1.84603238E-07
   30.8999996      -1.81213437E-07
   30.9500008      -1.77761436E-07
   31.0000000      -1.74246793E-07
   31.0499992      -1.70669253E-07
   31.1000004      -1.67028787E-07
   31.1499996      -1.63325410E-07
   31.2000008      -1.59559377E-07
   31.2500000      -1.55731087E-07
   31.2999992      -1.51841093E-07
   31.3500004      -1.47890091E-07
   31.3999996      -1.43878921E-07
   31.4500008      -1.39808549E-07
   31.5000000      -1.35680082E-07
   31.5499992      -1.31494801E-07
   31.6000004      -1.27254012E-07
   31.6499996      -1.22959193E-07
   31.7000008      -1.18611865E-07
   31.7500000      -1.14213705E-07
   31.7999992      -1.09766404E-07
   31.8500004      -1.05271745E-07
   31.8999996      -1.00731533E-07
   31.9500008      -9.61476587E-08
   32.0000000      -9.15220397E-08
   32.0499992      -8.68565735E-08
   32.0999985      -8.21531998E-08
   32.1500015      -7.74138798E-08
   32.2000008      -7.26404963E-08
   32.2500000      -6.78349892E-08
   32.2999992      -6.29991703E-08
   32.3499985      -5.81349049E-08
   32.4000015      -5.32439408E-08
   32.4500008      -4.83279941E-08
   32.5000000      -4.33887344E-08
   32.5499992      -3.84277037E-08
   32.5999985      -3.34464048E-08
   32.6500015      -2.84462267E-08
   32.7000008      -2.34284911E-08
   32.7500000      -1.83943918E-08
   32.7999992      -1.33450353E-08
   32.8499985      -8.28143154E-09
   32.9000015      -3.20443960E-09
   32.9500008       1.88514360E-09
   33.0000000       6.98663749E-09
   33.0499992       1.20994725E-08
   33.0999985       1.72231935E-08
   33.1500015       2.23574688E-08
   33.2000008       2.75020469E-08
   33.2500000       3.26567715E-08
   33.2999992       3.78215717E-08
   33.3499985       4.29965112E-08
   33.4000015       4.81817004E-08
   33.4500008       5.33773346E-08
   33.5000000       5.85836659E-08
   33.5499992       6.38010249E-08
   33.5999985       6.90297952E-08
   33.6500015       7.42703676E-08
   33.7000008       7.95232040E-08
   33.7500000       8.47887875E-08
   33.7999992       9.00676156E-08
   33.8499985       9.53601429E-08
   33.9000015       1.00666846E-07
   33.9500008       1.05988200E-07
   34.0000000       1.11324624E-07
   34.0499992       1.16676503E-07
   34.0999985       1.22044156E-07
   34.1500015       1.27427811E-07
   34.2000008       1.32827680E-07
   34.2500000       1.38243848E-07
   34.2999992       1.43676303E-07
   34.3499985       1.49124958E-07
   34.4000015       1.54589543E-07
   34.4500008       1.60069732E-07
   34.5000000       1.65565012E-07
   34.5499992       1.71074760E-07
   34.5999985       1.76598164E-07
   34.6500015       1.82134286E-07
   34.7000008       1.87682048E-07
   34.7500000       1.93240183E-07
   34.7999992       1.98807257E-07
   34.8499985       2.04381635E-07
   34.9000015       2.09961556E-07
   34.9500008       2.15545029E-07
   35.0000000       2.21129952E-07
   35.0499992       2.26714022E-07
   35.0999985       2.32294738E-07
   35.1500015       2.37869472E-07
   35.2000008       2.43435437E-07
   35.2500000       2.48989608E-07
   35.2999992       2.54528885E-07
   35.3499985       2.60050001E-07
   35.4000015       2.65549517E-07
   35.4500008       2.71023907E-07
   35.5000000       2.76469450E-07
   35.5499992       2.81882393E-07
   35.5999985       2.87258842E-07
   35.6500015       2.92594791E-07
   35.7000008       2.97886118E-07
   35.7500000       3.03128729E-07
   35.7999992       3.08318363E-07
   35.8499985       3.13450755E-07
   35.9000015       3.18521586E-07
   35.9500008       3.23526564E-07
   36.0000000       3.28461283E-07
   36.0499992       3.33321395E-07
   36.0999985       3.38102581E-07
   36.1500015       3.42800490E-07
   36.2000008       3.47410833E-07
   36.2500000       3.51929344E-07
   36.2999992       3.56351791E-07
   36.3499985       3.60674079E-07
   36.4000015       3.64892088E-07
   36.4500008       3.69001839E-07
   36.5000000       3.72999466E-07
   36.5499992       3.76881161E-07
   36.5999985       3.80643201E-07
   36.6500015       3.84282004E-07
   36.7000008       3.87794103E-07
   36.7500000       3.91176201E-07
   36.7999992       3.94425058E-07
   36.8499985       3.97537576E-07
   36.9000015       4.00510856E-07
   36.9500008       4.03342113E-07
   37.0000000       4.06028676E-07
   37.0499992       4.08568042E-07
   37.0999985       4.10957853E-07
   37.1500015       4.13195920E-07
   37.2000008       4.15280141E-07
   37.2500000       4.17208611E-07
   37.2999992       4.18979567E-07
   37.3499985       4.20591391E-07
   37.4000015       4.22042575E-07
   37.4500008       4.23331784E-07
   37.5000000       4.24457767E-07
   37.5499992       4.25419529E-07
   37.5999985       4.26216047E-07
   37.6500015       4.26846555E-07
   37.7000008       4.27310368E-07
   37.7500000       4.27606892E-07
   37.7999992       4.27735699E-07
   37.8499985       4.27696449E-07
   37.9000015       4.27488914E-07
   37.9500008       4.27112980E-07
   38.0000000       4.26568675E-07
   38.0499992       4.25856058E-07
   38.0999985       4.24975298E-07
   38.1500015       4.23926764E-07
   38.2000008       4.22710769E-07
   38.2500000       4.21327826E-07
   38.2999992       4.19778530E-07