   166.214996       4.41982934E-07
   165.929993       6.00542478E-07
   165.645004       7.66712958E-07
   165.360001       9.38581820E-07
   165.074997       1.11406996E-06
   164.789993       1.29098282E-06
   164.505005       1.46706054E-06
   164.220001       1.64002438E-06
   163.934998       1.80762265E-06
   163.649994       1.96767314E-06
   163.365005       2.11810107E-06
   163.080002       2.25697363E-06
   162.794998       2.38253233E-06
   162.509995       2.49322056E-06
   162.225006       2.58770910E-06
   161.940002       2.66491793E-06
   161.654999       2.72403258E-06
   161.369995       2.76451919E-06
   161.085007       2.78613379E-06
   160.800003       2.78892321E-06
   160.514999       2.77322215E-06
   160.229996       2.73964474E-06
   159.945007       2.68907047E-06
   159.660004       2.62262370E-06
   159.375000       2.54164775E-06
   159.089996       2.44767693E-06
   158.804993       2.34240088E-06
   158.520004       2.22762560E-06
   158.235001       2.10523808E-06
   157.949997       1.97716190E-06
   157.664993       1.84532087E-06
   157.380005       1.71160082E-06
   157.095001       1.57781324E-06
   156.809998       1.44566297E-06
   156.524994       1.31671891E-06
   156.240005       1.19238871E-06
   155.955002       1.07390031E-06
   155.669998       9.62286322E-07
   155.384995       8.58376268E-07
   155.100006       7.62791615E-07
   154.815002       6.75946126E-07
   154.529999       5.98051258E-07
   154.244995       5.29125316E-07
   153.960007       4.69006181E-07
   153.675003       4.17369591E-07
   153.389999       3.73746502E-07
   153.104996       3.37544094E-07
   152.820007       3.08069957E-07
   152.535004       2.84554460E-07
   152.250000       2.66174681E-07
   151.964996       2.52078593E-07
   151.679993       2.41407122E-07
   151.395004       2.33315944E-07
   151.110001       2.26995354E-07
   150.824997       2.21687898E-07
   150.539993       2.16703768E-07
   150.255005       2.11433289E-07
   149.970001       2.05356770E-07
   149.684998       1.98051268E-07
   149.399994       1.89194438E-07
   149.115005       1.78565458E-07
   148.830002       1.66042966E-07
   148.544998       1.51600489E-07
   148.259995       1.35299317E-07
   147.975006       1.17279797E-07
   147.690002       9.77505863E-08
   147.404999       7.69770168E-08
   147.119995       5.52685613E-08
   146.835007       3.29664580E-08
   146.550003       1.04313234E-08
   146.264999      -1.19683703E-08
   145.979996      -3.38669324E-08
   145.695007      -5.49104868E-08
   145.410004      -7.47648770E-08
   145.125000      -9.31220399E-08
   144.839996      -1.09704885E-07
   144.554993      -1.24270983E-07
   144.270004      -1.36615100E-07
   143.985001      -1.46570912E-07
   143.699997      -1.54011900E-07
   143.414993      -1.58851961E-07
   143.130005      -1.61045620E-07
   142.845001      -1.60588129E-07
   142.559998      -1.57515274E-07
   142.274994      -1.51903052E-07
   141.990005      -1.43867169E-07
   141.705002      -1.33562082E-07
   141.419998      -1.21179681E-07
   141.134995      -1.06947375E-07
   140.850006      -9.11255000E-08
   140.565002      -7.40039496E-08
   140.279999      -5.58981732E-08
   139.994995      -3.71441402E-08
   139.710007      -1.80927575E-08
   139.425003       8.96538899E-10
   139.139999       1.94625720E-08
   138.854996       3.72498086E-08
   138.570007       5.39158975E-08
   138.285004       6.91393822E-08
   138.000000       8.26272739E-08
   137.714996       9.41222567E-08
   137.429993       1.03409441E-07
   137.145004       1.10322254E-07
   136.860001       1.14747451E-07
   136.574997       1.16628804E-07
   136.289993       1.15969414E-07
   136.005005       1.12832467E-07
   135.720001       1.07340263E-07
   135.434998       9.96715386E-08
   135.149994       9.00570001E-08
   134.865005       7.87731267E-08
   134.580002       6.61344544E-08
   134.294998       5.24844772E-08
   134.009995       3.81855365E-08
   133.725006       2.36079316E-08
   133.440002       9.11892073E-09
   133.154999      -4.92829777E-09
   132.869995      -1.82048634E-08
   132.585007      -3.04155279E-08
   132.300003      -4.13065209E-08
   132.014999      -5.06716376E-08
   131.729996      -5.83563491E-08
   131.445007      -6.42598792E-08
   131.160004      -6.83351047E-08
   130.875000      -7.05865375E-08
   130.589996      -7.10665802E-08
   130.304993      -6.98702962E-08
   130.020004      -6.71291289E-08
   129.735001      -6.30039878E-08
   129.449997      -5.76780188E-08
   129.164993      -5.13495095E-08
   128.880005      -4.42252208E-08
   128.595001      -3.65144324E-08
   128.309998      -2.84237753E-08
   128.024994      -2.01530206E-08
   127.739998      -1.18917400E-08
   127.455002      -3.81679177E-09
   127.169998       3.90953669E-09
   126.885002       1.11408687E-08
   126.599998       1.77477428E-08
   126.315002       2.36184317E-08
   126.029999       2.86597199E-08
   125.745003       3.27976828E-08
   125.459999       3.59785197E-08
   125.175003       3.81693823E-08
   124.889999       3.93591364E-08
   124.605003       3.95589019E-08
   124.320000       3.88022734E-08
   124.035004       3.71449964E-08
   123.750000       3.46640192E-08
   123.464996       3.14558015E-08
   123.180000       2.76338241E-08
   122.894997       2.33253061E-08
   122.610001       1.86672615E-08
   122.324997       1.38019551E-08
   122.040001       8.87204443E-09
   121.754997       4.01561984E-09
   121.470001      -6.38566922E-10
   121.184998      -4.97540276E-09
   120.900002      -8.89698271E-09
   120.614998      -1.23252653E-08
   120.330002      -1.52036517E-08
   120.044998      -1.74974133E-08
   119.760002      -1.91930400E-08
   119.474998      -2.02965467E-08
   119.190002      -2.08309761E-08
   118.904999      -2.08332924E-08
   118.620003      -2.03509689E-08
   118.334999      -1.94385130E-08
   118.050003      -1.81542354E-08
   117.764999      -1.65574416E-08
   117.480003      -1.47062451E-08
   117.195000      -1.26560540E-08
   116.910004      -1.04587716E-08
   116.625000      -8.16264567E-09
   116.339996      -5.81262816E-09
   116.055000      -3.45110118E-09
   115.769997      -1.11875487E-09
   115.485001       1.14458332E-09
   115.199997       3.29934124E-09
   114.915001       5.30597255E-09
   114.629997       7.12519732E-09
   114.345001       8.71873951E-09
   114.059998       1.00505346E-08
   113.775002       1.10883187E-08
   113.489998       1.18054517E-08
   113.205002       1.21828023E-08
   112.919998       1.22105099E-08
   112.635002       1.18894130E-08
   112.349998       1.12320073E-08
   112.065002       1.02627702E-08
   111.779999       9.01779362E-09
   111.495003       7.54369367E-09
   111.209999       5.89584159E-09
   110.925003       4.13601553E-09
   110.639999       2.32960318E-09
   110.355003       5.42566825E-10
   110.070000      -1.16165400E-09
   109.785004      -2.72507816E-09
   109.500000      -4.09777590E-09
   109.214996      -5.23995025E-09
   108.930000      -6.12339290E-09
   108.644997      -6.73223743E-09
   108.360001      -7.06300485E-09
   108.074997      -7.12397208E-09
   107.790001      -6.93394275E-09
   107.504997      -6.52055077E-09
   107.220001      -5.91822946E-09
   106.934998      -5.16601117E-09
   106.650002      -4.30530411E-09
   106.364998      -3.37778427E-09
   106.080002      -2.42352094E-09
   105.794998      -1.47941237E-09
   105.510002      -5.77991821E-10
   105.224998       2.53392918E-10
   104.940002       9.93029103E-10
   104.654999       1.62495994E-09
   104.370003       2.13882934E-09
   104.084999       2.52951682E-09
   103.800003       2.79662360E-09
   103.514999       2.94387381E-09
   103.230003       2.97847635E-09
   102.945000       2.91049029E-09
   102.660004       2.75221379E-09
   102.375000       2.51761412E-09
   102.089996       2.22179319E-09
   101.805000       1.88049221E-09
   101.519997       1.50962165E-09
   101.235001       1.12481258E-09
   100.949997       7.40985273E-10
   100.665001       3.71934511E-10
   100.379997       2.99385516E-11
   100.095001      -2.74593043E-10
   99.8099976      -5.33420197E-10
   99.5250015      -7.40700501E-10
   99.2399979      -8.93127516E-10
   98.9550018      -9.89963889E-10
   98.6699982      -1.03296116E-09
   98.3850021      -1.02616105E-09
   98.0999985      -9.75588166E-10
   97.8150024      -8.88844442E-10
   97.5299988      -7.74630915E-10
   97.2450027      -6.42223330E-10
   96.9599991      -5.00935404E-10
   96.6750031      -3.59601321E-10
   96.3899994      -2.26111824E-10
   96.1050034      -1.07030329E-10
   95.8199997      -7.31222201E-12
   95.5350037       6.98598471E-11
   95.2500000       1.23117946E-10
   94.9649963       1.52832122E-10
   94.6800003       1.60926147E-10
   94.3949966       1.50604473E-10
   94.1100006       1.26014296E-10
   93.8249969       9.18697826E-11
   93.5400009       5.30670959E-11
   93.2549973       1.43172583E-11
   92.9700012      -2.01786712E-11
   92.6849976      -4.69924100E-11
   92.4000015      -6.36556294E-11
   92.1149979      -6.87638349E-11
   91.8300018      -6.19962068E-11
   91.5449982      -4.40563801E-11
   91.2600021      -1.65447430E-11
   90.9749985       1.82234818E-11
   90.6900024       5.74370967E-11
   90.4049988       9.80265868E-11
   90.1200027       1.36902295E-10
   89.8349991       1.71176587E-10
   89.5500031       1.98355998E-10
   89.2649994       2.16492754E-10
   88.9800034       2.24288615E-10
   88.6949997       2.21148044E-10
   88.4100037       2.07181564E-10
   88.1250000       1.83163096E-10
   87.8399963       1.50448112E-10
   87.5550003       1.10861119E-10
   87.2699966       6.65622835E-11
   86.9850006       1.99031572E-11
   86.6999969      -2.67186898E-11
   86.4150009      -7.09977424E-11
   86.1299973      -1.10843529E-10
   85.8450012      -1.44483134E-10
   85.5599976      -1.70539027E-10
   85.2750015      -1.88080149E-10
   84.9899979      -1.96645589E-10
   84.7050018      -1.96241731E-10
   84.4199982      -1.87315163E-10
   84.1350021      -1.70704575E-10
   83.8499985      -1.47575646E-10
   83.5650024      -1.19343674E-10
   83.2799988      -8.75885614E-11
   82.9950027      -5.39670530E-11
   82.7099991      -2.01267301E-11
   82.4250031       1.23741295E-11
   82.1399994       4.21371063E-11
   81.8550034       6.79818563E-11
   81.5699997       8.89898016E-11
   81.2850037       1.04532161E-10
   81.0000000       1.14281654E-10
   80.7149963       1.18208540E-10
   80.4300003       1.16562010E-10
   80.1449966       1.09838937E-10
   79.8600006       9.87422366E-11
   79.5749969       8.41317502E-11
   79.2900009       6.69705610E-11
   79.0049973       4.82698118E-11
   78.7200012       2.90349689E-11
   78.4349976       1.02163165E-11
   78.1500015      -7.33420529E-12
   77.8649979      -2.28978485E-11
   77.5800018      -3.59144554E-11
   77.2949982      -4.59976501E-11
   77.0100021      -5.29398435E-11
   76.7249985      -5.67074825E-11
   76.4400024      -5.74275662E-11
   76.1549988      -5.53668153E-11
   75.8700027      -5.09052557E-11
   75.5849991      -4.45060655E-11
   75.3000031      -3.66837394E-11
   75.0149994      -2.79724091E-11
   74.7300034      -1.88961225E-11
   74.4449997      -9.94250342E-12
   74.1600037      -1.54100929E-12
   73.8750000       5.95351589E-12
   73.5899963       1.22715406E-11
   73.3050003       1.72337995E-11
   73.0199966       2.07508212E-11
   72.7350006       2.28176106E-11
   72.4499969       2.35043651E-11
   72.1650009       2.29440980E-11
   71.8799973       2.13183013E-11
   71.5950012       1.88416192E-11
   71.3099976       1.57465308E-11
   71.0250015       1.22689038E-11
   70.7399979       8.63508917E-12
   70.4550018       5.05111231E-12
   70.1699982       1.69428566E-12
   69.8850021      -1.29259201E-12
   69.5999985      -3.80445501E-12
   69.3150024      -5.77475654E-12
   69.0299988      -7.17409378E-12
   68.7450027      -8.00700565E-12
   68.4599991      -8.30735480E-12
   68.1750031      -8.13271846E-12
   67.8899994      -7.55821447E-12
   67.6050034      -6.67017006E-12
   67.3199997      -5.55999821E-12
   67.0350037      -4.31858369E-12
   66.7500000      -3.03141605E-12
   66.4649963      -1.77464684E-12
   66.1800003      -6.12164562E-13
   65.8949966       4.06274298E-13
   65.6100006       1.24589282E-12
   65.3249969       1.88679584E-12
   65.0400009       2.32305169E-12
   64.7549973       2.56110801E-12
   64.4700012       2.61771182E-12
   64.1849976       2.51751398E-12
   63.9000015       2.29053994E-12
   63.6150017       1.96968353E-12
   63.3300018       1.58837353E-12
   63.0449982       1.17852332E-12
   62.7599983       7.68853080E-13
   62.4749985       3.83634422E-13
   62.1899986       4.18803142E-14
   61.9049988      -2.43030151E-13
   61.6199989      -4.63324528E-13
   61.3349991      -6.16464562E-13
   61.0499992      -7.04498200E-13
   60.7649994      -7.33214704E-13
   60.4799995      -7.11185505E-13
   60.1949997      -6.48768257E-13
   59.9099998      -5.57146018E-13
   59.6250000      -4.47460591E-13
   59.3400002      -3.30084538E-13
   59.0550003      -2.14062072E-13
   58.7700005      -1.06729763E-13
   58.4850006      -1.35173871E-14
   58.2000008       6.20866070E-14
   57.9150009       1.18428813E-13
   57.6300011       1.55474592E-13
   57.3450012       1.74515526E-13
   57.0600014       1.77834771E-13
   56.7750015       1.68361852E-13
   56.4900017       1.49343943E-13
   56.2050018       1.24054928E-13
   55.9199982       9.55567345E-14
   55.6349983       6.65212175E-14
   55.3499985       3.91145212E-14
   55.0649986       1.49409192E-14
   54.7799988      -4.96102242E-15
   54.4949989      -2.00796902E-14
   54.2099991      -3.03602189E-14
   53.9249992      -3.61142797E-14
   53.6399994      -3.79206113E-14
   53.3549995      -3.65257751E-14
   53.0699997      -3.27525245E-14
   52.7849998      -2.74214042E-14
   52.5000000      -2.12887738E-14
   52.2150002      -1.50028508E-14
   51.9300003      -9.07735309E-15
   51.6450005      -3.88127988E-15
   51.3600006       3.57752094E-16
   51.0750008       3.53968716E-15
   50.7900009       5.67104228E-15
   50.5050011       6.83996215E-15
   50.2200012       7.19020350E-15
   49.9350014       6.89642071E-15
   49.6500015       6.14254063E-15
   49.3650017       5.10435056E-15
   49.0800018       3.93684905E-15
   48.7949982       2.76636069E-15
   48.5099983       1.68701149E-15
   48.2249985       7.60867515E-16
   47.9399986       2.08513704E-17
   47.6549988      -5.24474542E-16
   47.3699989      -8.85157794E-16
   47.0849991      -1.08390370E-15
   46.7999992      -1.15053512E-15
   46.5149994      -1.11729024E-15
   46.2299995      -1.01519990E-15
   45.9449997      -8.71619720E-16
   45.6599998      -7.08853339E-16
   45.3750000      -5.43707061E-16
   45.0900002      -3.87757045E-16
   44.8050003      -2.48086951E-16
   44.5200005      -1.28267523E-16
   44.2350006      -2.93817995E-17
   43.9500008       4.90504670E-17
   43.6650009       1.08340345E-16
   43.3800011       1.50127749E-16
   43.0950012       1.76103192E-16
   42.8100014       1.87915186E-16
   42.5250015       1.87204181E-16
   42.2400017       1.75698615E-16
   41.9550018       1.55314317E-16
   41.6699982       1.28210877E-16
   41.3849983       9.67787354E-17
   41.0999985       6.35502880E-17
   40.8149986       3.10465865E-17
   40.5299988       1.58552325E-18
   40.2449989      -2.29154027E-17
   39.9599991      -4.11070185E-17
   39.6749992      -5.23180786E-17
   39.3899994      -5.65873397E-17
   39.1049995      -5.46122640E-17
   38.8199997      -4.76220485E-17
   38.5349998      -3.71941762E-17
   38.2500000      -2.50420692E-17
   37.9650002      -1.28042389E-17
   37.6800003      -1.86339225E-18
   37.3950005       6.78244138E-18
   37.1100006       1.25842262E-17
   36.8250008       1.54398042E-17
   36.5400009       1.56334323E-17
   36.2550011       1.37328070E-17
   35.9700012       1.04637992E-17
   35.6850014       6.58391720E-18
   35.4000015       2.77276277E-18
   35.1150017      -4.47325627E-19
   34.8300018      -2.75376284E-18
   34.5449982      -4.02930057E-18
   34.2599983      -4.33627681E-18
   33.9749985      -3.86901986E-18
   33.6899986      -2.89567271E-18
   33.4049988      -1.70045669E-18
   33.1199989      -5.35322651E-19
   32.8349991       4.13128197E-19
   32.5499992       1.03914668E-18
   32.2649994       1.31676938E-18
   31.9799995       1.28574442E-18
   31.6949997       1.02950537E-18
   31.4099998       6.50604900E-19
   31.1250000       2.48369587E-19
   30.8400002      -9.78275427E-20
   30.5550003      -3.37966870E-19
   30.2700005      -4.53409023E-19
   29.9850006      -4.52832116E-19
   29.7000008      -3.64182679E-19
   29.4150009      -2.25004449E-19
   29.1299992      -7.32808223E-20
   28.8449993       5.96502299E-20
   28.5599995       1.53288458E-19
   28.2749996       1.99175217E-19
   27.9899998       1.99591715E-19
   27.7049999       1.64589090E-19
   27.4200001       1.08298816E-19
   27.1350002       4.53821528E-20
   26.8500004      -1.17583239E-20
   26.5650005      -5.46733750E-20
   26.2800007      -7.94234461E-20
   25.9950008      -8.61751205E-20
   25.7099991      -7.81516818E-20
   25.4249992      -6.02939316E-20
   25.1399994      -3.79521160E-20
   24.8549995      -1.58421001E-20
   24.5699997       2.61018458E-21
   24.2849998       1.55174592E-20
   24.0000000       2.24356585E-20
   23.7150002       2.40355244E-20
   23.4300003       2.16663692E-20
   23.1450005       1.69233075E-20
   22.8600006       1.12974874E-20
   22.5750008       5.95034918E-21
   22.2900009       1.61708185E-21
   22.0049992      -1.38210056E-21
   21.7199993      -3.05875719E-21
   21.4349995      -3.63999375E-21
   21.1499996      -3.45227141E-21
   20.8649998      -2.82756445E-21
   20.5799999      -2.04228167E-21
   20.2950001      -1.28920955E-21
   20.0100002      -6.75922176E-22
   19.7250004      -2.40048404E-22
   19.4400005       2.81642434E-23
   19.1550007       1.63447928E-22
   18.8700008       2.07792753E-22
   18.5849991       1.99109010E-22
   18.2999992       1.65888689E-22
   18.0149994       1.26326999E-22
   17.7299995       9.00320262E-23
   17.4449997       6.07076114E-23
   17.1599998       3.87139358E-23
   16.8750000       2.29661012E-23
   16.5900002       1.20627001E-23
   16.3050003       4.78830839E-24
   16.0200005       2.25086742E-25
   15.7349997      -2.31135397E-24
   15.4499998      -3.36832286E-24
   15.1650000      -3.41732178E-24
   14.8800001      -2.86965213E-24
   14.5950003      -2.06379108E-24
   14.3100004      -1.24787777E-24
   14.0249996      -5.73157294E-25
   13.7399998      -1.03408473E-25
   13.4549999       1.63241329E-25
   13.1700001       2.67568849E-25
   12.8850002       2.64785551E-25
   12.6000004       2.06864154E-25
   12.3149996       1.32994763E-25
   12.0299997       6.70171913E-26
   11.7449999       1.94330014E-26
   11.4600000      -8.50884169E-27
   11.1750002      -2.05632141E-26
   10.8900003      -2.21525531E-26
   10.6049995      -1.82900636E-26
   10.3199997      -1.26363530E-26
   10.0349998      -7.35065368E-27
   9.75000000      -3.37335797E-27
   9.46500015      -8.52358815E-28
   9.18000031       4.66460907E-28
   8.89500046       9.62617823E-28
   8.60999966       9.85996109E-28
   8.32499981       7.94845395E-28
   8.03999996       5.49617313E-28
   7.75500011       3.32344056E-28
   7.46999979       1.72597460E-28
   7.18499994       7.05764070E-29
   6.90000010       1.38624239E-29
   6.61499977      -1.24287933E-29
   6.32999992      -2.08141313E-29
   6.04500008      -2.00829866E-29
   5.76000023      -1.56825692E-29
   5.47499990      -1.06347911E-29
   5.19000006      -6.37843246E-30
   4.90500021      -3.38062847E-30
   4.61999989      -1.56434177E-30
   4.33500004      -6.15976390E-31
   4.05000019      -1.93707316E-31
   3.76500010      -3.67952977E-32
   3.48000002       9.36266116E-33
   3.19499993       1.74723394E-32
   2.91000009       1.47821970E-32
   2.62500000       9.83680489E-33
   2.33999991       5.36573021E-33
   2.05500007       2.30420127E-33
   1.76999998       6.82865148E-34
   1.48500001       5.83911896E-35
   1.20000005      -7.42908584E-35
  0.915000021      -5.43479137E-35
  0.629999995      -1.66986104E-35
  0.344999999       4.47969066E-37
   5.99999987E-02   2.59701474E-36
 -0.224999994       1.90086975E-36
 -0.509999990       6.53888059E-37
 -0.795000017       1.15954690E-37
  -1.08000004       3.67830589E-38
  -1.36500001       1.10374198E-38
  -1.64999998       1.44584294E-39
  -1.93499994      -1.34538666E-41
  -2.22000003       5.08250953E-42
  -2.50500011       0.00000000    
  -2.78999996       0.00000000    
  -3.07500005       0.00000000    
  -3.35999990       0.00000000    
  -3.64499998       0.00000000    
  -3.93000007       0.00000000    
  -4.21500015       0.00000000    
  -4.50000000       0.00000000    
