   166.214996      -2.35774382E-06
   165.929993      -2.31331228E-06
   165.645004      -2.27295095E-06
   165.360001      -2.23743791E-06
   165.074997      -2.20736592E-06
   164.789993      -2.18312812E-06
   164.505005      -2.16490980E-06
   164.220001      -2.15268619E-06
   163.934998      -2.14623014E-06
   163.649994      -2.14512716E-06
   163.365005      -2.14879651E-06
   163.080002      -2.15651721E-06
   162.794998      -2.16745980E-06
   162.509995      -2.18071773E-06
   162.225006      -2.19534104E-06
   161.940002      -2.21036953E-06
   161.654999      -2.22486187E-06
   161.369995      -2.23792063E-06
   161.085007      -2.24871496E-06
   160.800003      -2.25649160E-06
   160.514999      -2.26058387E-06
   160.229996      -2.26041175E-06
   159.945007      -2.25547933E-06
   159.660004      -2.24536598E-06
   159.375000      -2.22971607E-06
   159.089996      -2.20822881E-06
   158.804993      -2.18064542E-06
   158.520004      -2.14674128E-06
   158.235001      -2.10632106E-06
   157.949997      -2.05921629E-06
   157.664993      -2.00528939E-06
   157.380005      -1.94444306E-06
   157.095001      -1.87663159E-06
   156.809998      -1.80187703E-06
   156.524994      -1.72028615E-06
   156.240005      -1.63206710E-06
   155.955002      -1.53754570E-06
   155.669998      -1.43717727E-06
   155.384995      -1.33155527E-06
   155.100006      -1.22141307E-06
   154.815002      -1.10762039E-06
   154.529999      -9.91172556E-07
   154.244995      -8.73173235E-07
   153.960007      -7.54811367E-07
   153.675003      -6.37334040E-07
   153.389999      -5.22014545E-07
   153.104996      -4.10119185E-07
   152.820007      -3.02873644E-07
   152.535004      -2.01430083E-07
   152.250000      -1.06836914E-07
   151.964996      -2.00124894E-08
   151.679993       5.82764486E-08
   151.395004       1.27430837E-07
   151.110001       1.87029499E-07
   150.824997       2.36833372E-07
   150.539993       2.76783993E-07
   150.255005       3.06996867E-07
   149.970001       3.27750399E-07
   149.684998       3.39471143E-07
   149.399994       3.42716135E-07
   149.115005       3.38153569E-07
   148.830002       3.26542136E-07
   148.544998       3.08710241E-07
   148.259995       2.85535663E-07
   147.975006       2.57925848E-07
   147.690002       2.26799429E-07
   147.404999       1.93069368E-07
   147.119995       1.57627326E-07
   146.835007       1.21329890E-07
   146.550003       8.49863824E-08
   146.264999       4.93482446E-08
   145.979996       1.51000155E-08
   145.695007      -1.71480803E-08
   145.410004      -4.68661412E-08
   145.125000      -7.36090300E-08
   144.839996      -9.70192104E-08
   144.554993      -1.16828211E-07
   144.270004      -1.32856513E-07
   143.985001      -1.45011867E-07
   143.699997      -1.53286265E-07
   143.414993      -1.57751373E-07
   143.130005      -1.58552879E-07
   142.845001      -1.55903479E-07
   142.559998      -1.50074854E-07
   142.274994      -1.41388952E-07
   141.990005      -1.30208576E-07
   141.705002      -1.16927538E-07
   141.419998      -1.01960673E-07
   141.134995      -8.57338023E-08
   140.850006      -6.86740833E-08
   140.565002      -5.12006153E-08
   140.279999      -3.37159527E-08
   139.994995      -1.65981540E-08
   139.710007      -1.93965635E-10
   139.425003       1.51870143E-08
   139.139999       2.92769329E-08
   138.854996       4.18531698E-08
   138.570007       5.27404325E-08
   138.285004       6.18116474E-08
   138.000000       6.89876245E-08
   137.714996       7.42355013E-08
   137.429993       7.75662627E-08
   137.145004       7.90312100E-08
   136.860001       7.87178536E-08
   136.574997       7.67452235E-08
   136.289993       7.32587608E-08
   136.005005       6.84250878E-08
   135.720001       6.24268779E-08
   135.434998       5.54578179E-08
   135.149994       4.77179967E-08
   134.865005       3.94096595E-08
   134.580002       3.07334993E-08
   134.294998       2.18853646E-08
   134.009995       1.30535263E-08
   133.725006       4.41627312E-09
   133.440002      -3.86008692E-09
   133.154999      -1.16230110E-08
   132.869995      -1.87353262E-08
   132.585007      -2.50767211E-08
   132.300003      -3.05452090E-08
   132.014999      -3.50585552E-08
   131.729996      -3.85556582E-08
   131.445007      -4.09978682E-08
   131.160004      -4.23701003E-08
   130.875000      -4.26815916E-08
   130.589996      -4.19662562E-08
   130.304993      -4.02824476E-08
   130.020004      -3.77119633E-08
   129.735001      -3.43582727E-08
   129.449997      -3.03438767E-08
   129.164993      -2.58068091E-08
   128.880005      -2.08963638E-08
   128.595001      -1.57681601E-08
   128.309998      -1.05787894E-08
   128.024994      -5.48026158E-09
   127.739998      -6.14564677E-10
   127.455002       3.89138588E-09
   127.169998       7.93010457E-09
   126.885002       1.14169287E-08
   126.599998       1.42922882E-08
   126.315002       1.65226997E-08
   126.029999       1.81004491E-08
   125.745003       1.90420231E-08
   125.459999       1.93854088E-08
   125.175003       1.91864800E-08
   124.889999       1.85147311E-08
   124.605003       1.74486612E-08
   124.320000       1.60711195E-08
   124.035004       1.44648986E-08
   123.750000       1.27088482E-08
   123.464996       1.08747011E-08
   123.180000       9.02473296E-09
   122.894997       7.21033722E-09
   122.610001       5.47149481E-09
   122.324997       3.83705734E-09
   122.040001       2.32571185E-09
   121.754997       9.47447787E-10
   121.470001      -2.94647917E-10
   121.184998      -1.40248413E-09
   120.900002      -2.38111109E-09
   120.614998      -3.23707727E-09
   120.330002      -3.97709909E-09
   120.044998      -4.60711513E-09
   119.760002      -5.13173548E-09
   119.474998      -5.55407587E-09
   119.190002      -5.87590732E-09
   118.904999      -6.09805051E-09
   118.620003      -6.22092022E-09
   118.334999      -6.24511598E-09
   118.050003      -6.17199269E-09
   117.764999      -6.00411409E-09
   117.480003      -5.74556935E-09
   117.195000      -5.40210987E-09
   116.910004      -4.98110442E-09
   116.625000      -4.49135973E-09
   116.339996      -3.94281363E-09
   116.055000      -3.34618222E-09
   115.769997      -2.71259126E-09
   115.485001      -2.05324979E-09
   115.199997      -1.37919653E-09
   114.915001      -7.01147307E-10
   114.629997      -2.94407901E-11
   114.345001       6.25921592E-10
   114.059998       1.25516963E-09
   113.775002       1.84863191E-09
   113.489998       2.39661846E-09
   113.205002       2.88936408E-09
   112.919998       3.31706551E-09
   112.635002       3.67004871E-09
   112.349998       3.93905930E-09
   112.065002       4.11568868E-09
   111.779999       4.19289492E-09
   111.495003       4.16559409E-09
   111.209999       4.03125577E-09
   110.925003       3.79045462E-09
   110.639999       3.44731022E-09
   110.355003       3.00976044E-09
   110.070000       2.48962517E-09
   109.785004       1.90242799E-09
   109.500000       1.26696509E-09
   109.214996       6.04639006E-10
   108.930000      -6.14202161E-11
   108.644997      -7.07386705E-10
   108.360001      -1.30986977E-09
   108.074997      -1.84706628E-09
   107.790001      -2.29985897E-09
   107.504997      -2.65278999E-09
   107.220001      -2.89484148E-09
   106.934998      -3.01997938E-09
   106.650002      -3.02741543E-09
   106.364998      -2.92158209E-09
   106.080002      -2.71181744E-09
   105.794998      -2.41179055E-09
   105.510002      -2.03870076E-09
   105.224998      -1.61230795E-09
   104.940002      -1.15385479E-09
   104.654999      -6.84947432E-10
   104.370003      -2.26461128E-10
   104.084999       2.02466835E-10
   103.800003       5.85302862E-10
   103.514999       9.08798148E-10
   103.230003       1.16345689E-09
   102.945000       1.34377409E-09
   102.660004       1.44824541E-09
   102.375000       1.47915824E-09
   102.089996       1.44219248E-09
   101.805000       1.34586353E-09
   101.519997       1.20085031E-09
   101.235001       1.01925679E-09
   100.949997       8.13851320E-10
   100.665001       5.97332350E-10
   100.379997       3.81658954E-10
   100.095001       1.77481210E-10
   99.8099976      -6.30534253E-12
   99.5250015      -1.62866262E-10
   99.2399979      -2.87589313E-10
   98.9550018      -3.78104631E-10
   98.6699982      -4.34175557E-10
   98.3850021      -4.57479582E-10
   98.0999985      -4.51302384E-10
   97.8150024      -4.20172092E-10
   97.5299988      -3.69461683E-10
   97.2450027      -3.04986036E-10
   96.9599991      -2.32618619E-10
   96.6750031      -1.57946906E-10
   96.3899994      -8.59843655E-11
   96.1050034      -2.09476846E-11
   95.8199997       3.38940091E-11
   95.5350037       7.62979332E-11
   95.2500000       1.05057969E-10
   94.9649963       1.19954296E-10
   94.6800003       1.21651925E-10
   94.3949966       1.11560601E-10
   94.1100006       9.16680898E-11
   93.8249969       6.43599965E-11
   93.5400009       3.22375876E-11
   93.2549973      -2.05581559E-12
   92.9700012      -3.59912447E-11
   92.6849976      -6.72866762E-11
   92.4000015      -9.40114028E-11
   92.1149979      -1.14659962E-10
   91.8300018      -1.28195385E-10
   91.5449982      -1.34062997E-10
   91.2600021      -1.32177880E-10
   90.9749985      -1.22889490E-10
   90.6900024      -1.06928147E-10
   90.4049988      -8.53378340E-11
   90.1200027      -5.94003111E-11
   89.8349991      -3.05547462E-11
   89.5500031      -3.17199500E-13
   89.2649994       2.97967311E-11
   88.9800034       5.83430665E-11
   88.6949997       8.40121722E-11
   88.4100037       1.05681151E-10
   88.1250000       1.22454991E-10
   87.8399963       1.33695527E-10
   87.5550003       1.39038170E-10
   87.2699966       1.38396544E-10
   86.9850006       1.31955349E-10
   86.6999969       1.20152444E-10
   86.4150009       1.03650893E-10
   86.1299973       8.33027813E-11
   85.8450012       6.01058855E-11
   85.5599976       3.51554272E-11
   85.2750015       9.59264439E-12
   84.9899979      -1.54474541E-11
   84.7050018      -3.88870741E-11
   84.4199982      -5.97529873E-11
   84.1350021      -7.72183359E-11
   83.8499985      -9.06369355E-11
   83.5650024      -9.95685548E-11
   83.2799988      -1.03794036E-10
   82.9950027      -1.03319596E-10
   82.7099991      -9.83699788E-11
   82.4250031      -8.93712118E-11
   82.1399994      -7.69236064E-11
   81.8550034      -6.17667167E-11
   81.5699997      -4.47380778E-11
   81.2850037      -2.67280070E-11
   81.0000000      -8.63299623E-12
   80.7149963       8.68984485E-12
   80.4300003       2.44647774E-11
   80.1449966       3.80336179E-11
   79.8600006       4.88842612E-11
   79.5749969       5.66701894E-11
   79.2900009       6.12200290E-11
   79.0049973       6.25371560E-11
   78.7200012       6.07895539E-11
   78.4349976       5.62911488E-11
   78.1500015       4.94758817E-11
   77.8649979       4.08666226E-11
   77.5800018       3.10407637E-11
   77.2949982       2.05950326E-11
   77.0100021       1.01113900E-11
   76.7249985       1.26165476E-13
   76.4400024      -8.89594995E-12
   76.1549988      -1.65818800E-11
   75.8700027      -2.26632602E-11
   75.5849991      -2.69824128E-11
   75.3000031      -2.94913677E-11
   75.0149994      -3.02445707E-11
   74.7300034      -2.93862469E-11
   74.4449997      -2.71336183E-11
   74.1600037      -2.37574127E-11
   73.8750000      -1.95610871E-11
   73.5899963      -1.48601895E-11
   73.3050003      -9.96307290E-12
   73.0199966      -5.15407335E-12
   72.7350006      -6.79880143E-13
   72.4499969       3.26036702E-12
   72.1650009       6.52104889E-12
   71.8799973       9.01217122E-12
   71.5950012       1.06979044E-11
   71.3099976       1.15920554E-11
   71.0250015       1.17511166E-11
   70.7399979       1.12655978E-11
   70.4550018       1.02504021E-11
   70.1699982       8.83493886E-12
   69.8850021       7.15364009E-12
   69.5999985       5.33740803E-12
   69.3150024       3.50640307E-12
   69.0299988       1.76445718E-12
   68.7450027       1.95242450E-13
   68.4599991      -1.13981014E-12
   68.1750031      -2.20193330E-12
   67.8899994      -2.97400516E-12
   67.6050034      -3.45834754E-12
   67.3199997      -3.67365036E-12
   67.0350037      -3.65134615E-12
   66.7500000      -3.43173710E-12
   66.4649963      -3.06017039E-12
   66.1800003      -2.58348399E-12
   65.8949966      -2.04692361E-12
   65.6100006      -1.49164426E-12
   65.3249969      -9.52877859E-13
   65.0400009      -4.58768657E-13
   64.7549973      -2.98536762E-14
   64.4700012       3.20888471E-13
   64.1849976       5.87514575E-13
   63.9000015       7.70234625E-13
   63.6150017       8.74289573E-13
   63.3300018       9.08702855E-13
   63.0449982       8.85012007E-13
   62.7599983       8.16069543E-13
   62.4749985       7.14978478E-13
   62.1899986       5.94211637E-13
   61.9049988       4.64939773E-13
   61.6199989       3.36576036E-13
   61.3349991       2.16525596E-13
   61.0499992       1.10119887E-13
   60.7649994       2.07031386E-14
   60.4799995      -5.01644658E-14
   60.1949997      -1.02424572E-13
   59.9099998      -1.37195878E-13
   59.6250000      -1.56438136E-13
   59.3400002      -1.62631912E-13
   59.0550003      -1.58493471E-13
   58.7700005      -1.46737846E-13
   58.4850006      -1.29896961E-13
   58.2000008      -1.10193443E-13
   57.9150009      -8.94671910E-14
   57.6300011      -6.91475685E-14
   57.3450012      -5.02625827E-14
   57.0600014      -3.34754231E-14
   56.7750015      -1.91385892E-14
   56.4900017      -7.35679794E-15
   56.2050018       1.94852899E-15
   55.9199982       8.97890923E-15
   55.6349983       1.40066020E-14
   55.3499985       1.73325320E-14
   55.0649986       1.92552239E-14
   54.7799988       2.00502456E-14
   54.4949989       1.99588593E-14
   54.2099991       1.91841460E-14
   53.9249992       1.78925342E-14
   53.6399994       1.62188225E-14
   53.3549995       1.42728626E-14
   53.0699997       1.21464635E-14
   52.7849998       9.91944191E-15
   52.5000000       7.66417772E-15
   52.2150002       5.44832725E-15
   51.9300003       3.33571739E-15
   51.6450005       1.38568576E-15
   51.3600006      -3.48725397E-16
   51.0750008      -1.82319543E-15
   50.7900009      -3.00464482E-15
   50.5050011      -3.87337113E-15
   50.2200012      -4.42442874E-15
   49.9350014      -4.66800323E-15
   49.6500015      -4.62868947E-15
   49.3650017      -4.34369168E-15
   49.0800018      -3.86010702E-15
   48.7949982      -3.23153827E-15
   48.5099983      -2.51433959E-15
   48.2249985      -1.76383272E-15
   47.9399986      -1.03080405E-15
   47.6549988      -3.58572208E-16
   47.3699989       2.19172356E-16
   47.0849991       6.79619956E-16
   46.7999992       1.01115627E-15
   46.5149994       1.21278993E-15
   46.2299995       1.29282152E-15
   45.9449997       1.26694604E-15
   45.6599998       1.15600823E-15
   45.3750000       9.83645280E-16
   45.0900002       7.74032154E-16
   44.8050003       5.49912477E-16
   44.5200005       3.31045225E-16
   44.2350006       1.33142952E-16
   43.9500008      -3.26793980E-17
   43.6650009      -1.59977789E-16
   43.3800011      -2.46644877E-16
   43.0950012      -2.94267690E-16
   42.8100014      -3.07287089E-16
   42.5250015      -2.92071148E-16
   42.2400017      -2.56000091E-16
   41.9550018      -2.06642621E-16
   41.6699982      -1.51079682E-16
   41.3849983      -9.54065420E-17
   41.0999985      -4.44211639E-17
   40.8149986      -1.48816678E-18
   40.5299988       3.14465515E-17
   40.2449989       5.37235246E-17
   39.9599991       6.57558427E-17
   39.6749992       6.87690764E-17
   39.3899994       6.45262354E-17
   39.1049995       5.50633289E-17
   38.8199997       4.24548663E-17
   38.5349998       2.86221532E-17
   38.2500000       1.51916534E-17
   37.9650002       3.40557765E-18
   37.6800003      -5.91718109E-18
   37.3950005      -1.23751001E-17
   37.1100006      -1.59409880E-17
   36.8250008      -1.68914781E-17
   36.5400009      -1.57196874E-17
   36.2550011      -1.30418010E-17
   35.9700012      -9.50751470E-18
   35.6850014      -5.72276800E-18
   35.4000015      -2.19087967E-18
   35.1150017       7.24385585E-19
   34.8300018       2.81319990E-18
   34.5449982       4.01341126E-18
   34.2599983       4.38774564E-18
   33.9749985       4.08994615E-18
   33.6899986       3.32591726E-18
   33.4049988       2.31567682E-18
   33.1199989       1.26091711E-18
   32.8349991       3.21502202E-19
   32.5499992      -3.97523719E-19
   32.2649994      -8.48560698E-19
   31.9799995      -1.03529512E-18
   31.6949997      -1.00034808E-18
   31.4099998      -8.09772803E-19
   31.1250000      -5.37369355E-19
   30.8400002      -2.51264822E-19
   30.5550003      -4.38360892E-21
   30.2700005       1.70493363E-19
   29.9850006       2.61269003E-19
   29.7000008       2.73535937E-19
   29.4150009       2.25322112E-19
   29.1299992       1.40961787E-19
   28.8449993       4.53263504E-20
   28.5599995      -4.06792368E-20
   28.2749996      -1.02868123E-19
   27.9899998      -1.34697988E-19
   27.7049999      -1.36634288E-19
   27.4200001      -1.14427293E-19
   27.1350002      -7.68612865E-20
   26.8500004      -3.34969439E-20
   26.5650005       7.19220537E-21
   26.2800007       3.90533519E-20
   25.9950008       5.87895938E-20
   25.7099991       6.58684180E-20
   25.4249992       6.19696185E-20
   25.1399994       5.01801493E-20
   24.8549995       3.41386292E-20
   24.5699997       1.72920960E-20
   24.2849998       2.36773968E-21
   24.0000000      -8.90046016E-21
   23.7150002      -1.58058867E-20
   23.4300003      -1.85185803E-20
   23.1450005      -1.78234949E-20
   22.8600006      -1.48227987E-20
   22.5750008      -1.06644576E-20
   22.2900009      -6.33833162E-21
   22.0049992      -2.55758025E-21
   21.7199993       2.77219227E-22
   21.4349995       2.04857903E-21
   21.1499996       2.85177403E-21
   20.8649998       2.90885656E-21
   20.5799999       2.48770288E-21
   20.2950001       1.83953619E-21
   20.0100002       1.16065274E-21
   19.7250004       5.77548772E-22
   19.4400005       1.50297162E-22
   19.1550007      -1.12867353E-22
   18.8700008      -2.36625228E-22
   18.5849991      -2.60644944E-22
   18.2999992      -2.25847520E-22
   18.0149994      -1.66007636E-22
   17.7299995      -1.04283789E-22
   17.4449997      -5.33827413E-23
   17.1599998      -1.78001919E-23
   16.8750000       3.23212859E-24
   16.5900002       1.30437867E-23
   16.3050003       1.55519715E-23
   16.0200005       1.41212823E-23
   15.7349997       1.11196484E-23
   15.4499998       7.93251547E-24
   15.1650000       5.19997348E-24
   14.8800001       3.10245366E-24
   14.5950003       1.59622425E-24
   14.3100004       5.64900780E-25
   14.0249996      -1.05830263E-25
   13.7399998      -5.05273298E-25
   13.4549999      -7.00329412E-25
   13.1700001      -7.44881121E-25
   12.8850002      -6.86438509E-25
   12.6000004      -5.67800090E-25
   12.3149996      -4.25355476E-25
   12.0299997      -2.86646341E-25
   11.7449999      -1.69092668E-25
   11.4600000      -8.05605341E-26
   11.1750002      -2.14316221E-26
   10.8900003       1.26379523E-26
   10.6049995       2.80817010E-26
   10.3199997       3.14326312E-26
   10.0349998       2.81471919E-26
   9.75000000       2.21456244E-26
   9.46500015       1.58477010E-26
   9.18000031       1.04735861E-26
   8.89500046       6.42919519E-27
   8.60999966       3.65930002E-27
   8.32499981       1.91021070E-27
   8.03999996       8.90220769E-28
   7.75500011       3.46395328E-28
   7.46999979       8.83134755E-29
   7.18499994      -1.40058771E-29
   6.90000010      -4.13802509E-29
   6.61499977      -3.87170208E-29
   6.32999992      -2.75881340E-29
   6.04500008      -1.65700828E-29
   5.76000023      -8.27344521E-30
   5.47499990      -3.04766584E-30
   5.19000006      -4.16162898E-31
   4.90500021       4.47805937E-31
   4.61999989       4.19775380E-31
   4.33500004       1.54779716E-31
   4.05000019      -2.90905229E-32
   3.76500010      -7.98184762E-32
   3.48000002      -5.90545322E-32
   3.19499993      -2.78108240E-32
   2.91000009      -9.87643154E-33
   2.62500000      -3.76792702E-33
   2.33999991      -2.30437649E-33
   2.05500007      -1.54496086E-33
   1.76999998      -7.62898818E-34
   1.48500001      -2.08008088E-34
   1.20000005       2.81015183E-35
  0.915000021       6.67483976E-35
  0.629999995       4.23817371E-35
  0.344999999       1.76570071E-35
   5.99999987E-02   5.31343428E-36
 -0.224999994       3.91410687E-37
 -0.509999990       8.03625892E-39
 -0.795000017      -3.69400492E-39
  -1.08000004      -1.53916031E-38
  -1.36500001      -9.94954420E-39
  -1.64999998      -5.29553352E-39
  -1.93499994      -1.60922733E-39
  -2.22000003      -2.33021922E-41
  -2.50500011       0.00000000    
  -2.78999996       0.00000000    
  -3.07500005       0.00000000    
  -3.35999990       0.00000000    
  -3.64499998       0.00000000    
  -3.93000007       0.00000000    
  -4.21500015       0.00000000    
  -4.50000000       0.00000000    
