   166.214996       2.95307501E-07
   165.929993       3.26826324E-07
   165.645004       3.64674406E-07
   165.360001       4.09230665E-07
   165.074997       4.60680951E-07
   164.789993       5.19015316E-07
   164.505005       5.84035774E-07
   164.220001       6.55359258E-07
   163.934998       7.32423587E-07
   163.649994       8.14505199E-07
   163.365005       9.00743430E-07
   163.080002       9.90164835E-07
   162.794998       1.08170127E-06
   162.509995       1.17421905E-06
   162.225006       1.26655596E-06
   161.940002       1.35754692E-06
   161.654999       1.44604542E-06
   161.369995       1.53095425E-06
   161.085007       1.61124967E-06
   160.800003       1.68599820E-06
   160.514999       1.75436764E-06
   160.229996       1.81563530E-06
   159.945007       1.86919613E-06
   159.660004       1.91455888E-06
   159.375000       1.95133839E-06
   159.089996       1.97924783E-06
   158.804993       1.99808983E-06
   158.520004       2.00774321E-06
   158.235001       2.00815407E-06
   157.949997       1.99932015E-06
   157.664993       1.98128919E-06
   157.380005       1.95415373E-06
   157.095001       1.91804929E-06
   156.809998       1.87315356E-06
   156.524994       1.81969813E-06
   156.240005       1.75797436E-06
   155.955002       1.68834060E-06
   155.669998       1.61123182E-06
   155.384995       1.52717155E-06
   155.100006       1.43677846E-06
   154.815002       1.34076993E-06
   154.529999       1.23996381E-06
   154.244995       1.13527449E-06
   153.960007       1.02770480E-06
   153.675003       9.18335388E-07
   153.389999       8.08304549E-07
   153.104996       6.98788597E-07
   152.820007       5.90978289E-07
   152.535004       4.86052897E-07
   152.250000       3.85151424E-07
   151.964996       2.89345905E-07
   151.679993       1.99616920E-07
   151.395004       1.16830371E-07
   151.110001       4.17161594E-08
   150.824997      -2.51474201E-08
   150.539993      -8.33434726E-08
   150.255005      -1.32622802E-07
   149.970001      -1.72906198E-07
   149.684998      -2.04280767E-07
   149.399994      -2.26991105E-07
   149.115005      -2.41426790E-07
   148.830002      -2.48108137E-07
   148.544998      -2.47668225E-07
   148.259995      -2.40832605E-07
   147.975006      -2.28398264E-07
   147.690002      -2.11212168E-07
   147.404999      -1.90150715E-07
   147.119995      -1.66097990E-07
   146.835007      -1.39926854E-07
   146.550003      -1.12480919E-07
   146.264999      -8.45585149E-08
   145.979996      -5.68989122E-08
   145.695007      -3.01708134E-08
   145.410004      -4.96314279E-09
   145.125000       1.82214936E-08
   144.839996       3.89706152E-08
   144.554993       5.69639482E-08
   144.270004       7.19731474E-08
   143.985001       8.38593692E-08
   143.699997       9.25690884E-08
   143.414993       9.81287229E-08
   143.130005       1.00638246E-07
   142.845001       1.00263158E-07
   142.559998       9.72262768E-08
   142.274994       9.17989453E-08
   141.990005       8.42918553E-08
   141.705002       7.50454845E-08
   141.419998       6.44206466E-08
   141.134995       5.27888950E-08
   140.850006       4.05231511E-08
   140.565002       2.79886354E-08
   140.279999       1.55342388E-08
   139.994995       3.48433415E-09
   139.710007      -7.86837884E-09
   139.425003      -1.82691586E-08
   139.139999      -2.75059602E-08
   138.854996      -3.54131728E-08
   138.570007      -4.18735162E-08
   138.285004      -4.68182577E-08
   138.000000      -5.02259283E-08
   137.714996      -5.21194856E-08
   137.429993      -5.25621253E-08
   137.145004      -5.16517922E-08
   136.860001      -4.95150978E-08
   136.574997      -4.63007446E-08
   136.289993      -4.21726689E-08
   136.005005      -3.73035896E-08
   135.720001      -3.18689146E-08
   135.434998      -2.60415014E-08
   135.149994      -1.99872332E-08
   134.865005      -1.38615084E-08
   134.580002      -7.80668952E-09
   134.294998      -1.95063254E-09
   134.009995       3.59412855E-09
   133.725006       8.73075745E-09
   133.440002       1.33778917E-08
   133.154999       1.74691497E-08
   132.869995       2.09525872E-08
   132.585007       2.37902356E-08
   132.300003       2.59577284E-08
   132.014999       2.74439707E-08
   131.729996       2.82509340E-08
   131.445007       2.83935524E-08
   131.160004       2.78995902E-08
   130.875000       2.68092482E-08
   130.589996       2.51745824E-08
   130.304993       2.30585684E-08
   130.020004       2.05337489E-08
   129.735001       1.76805379E-08
   129.449997       1.45850150E-08
   129.164993       1.13364100E-08
   128.880005       8.02435185E-09
   128.595001       4.73610484E-09
   128.309998       1.55376001E-09
   128.024994      -1.44833268E-09
   127.739998      -4.20573398E-09
   127.455002      -6.66557298E-09
   127.169998      -8.78768613E-09
   126.885002      -1.05450448E-08
   126.599998      -1.19236150E-08
   126.315002      -1.29215838E-08
   126.029999      -1.35480542E-08
   125.745003      -1.38214356E-08
   125.459999      -1.37675720E-08
   125.175003      -1.34177931E-08
   124.889999      -1.28070310E-08
   124.605003      -1.19721326E-08
   124.320000      -1.09504494E-08
   124.035004      -9.77874759E-09
   123.750000      -8.49248138E-09
   123.464996      -7.12539139E-09
   123.180000      -5.70932190E-09
   122.894997      -4.27426139E-09
   122.610001      -2.84845991E-09
   122.324997      -1.45854884E-09
   122.040001      -1.29537936E-10
   121.754997       1.11527920E-09
   121.470001       2.25458274E-09
   121.184998       3.26944094E-09
   120.900002       4.14385459E-09
   120.614998       4.86536900E-09
   120.330002       5.42559508E-09
   120.044998       5.82066439E-09
   119.760002       6.05150463E-09
   119.474998       6.12387652E-09
   119.190002       6.04810957E-09
   118.904999       5.83854121E-09
   118.620003       5.51274315E-09
   118.334999       5.09054088E-09
   118.050003       4.59291449E-09
   117.764999       4.04088007E-09
   117.480003       3.45441054E-09
   117.195000       2.85157320E-09
   116.910004       2.24786523E-09
   116.625000       1.65582936E-09
   116.339996       1.08494480E-09
   116.055000       5.41823364E-10
   115.769997       3.06283748E-11
   115.485001      -4.46325504E-10
   115.199997      -8.87880935E-10
   114.915001      -1.29333222E-09
   114.629997      -1.66179426E-09
   114.345001      -1.99169636E-09
   114.059998      -2.28047980E-09
   113.775002      -2.52451549E-09
   113.489998      -2.71925260E-09
   113.205002      -2.85955237E-09
   112.919998      -2.94019187E-09
   112.635002      -2.95648039E-09
   112.349998      -2.90490787E-09
   112.065002      -2.78374657E-09
   111.779999      -2.59357402E-09
   111.495003      -2.33762742E-09
   111.209999      -2.02195460E-09
   110.925003      -1.65537684E-09
   110.639999      -1.24921495E-09
   110.355003      -8.16823165E-10
   110.070000      -3.72960968E-10
   109.785004       6.69444569E-11
   109.500000       4.87581531E-10
   109.214996       8.74541939E-10
   108.930000       1.21504873E-09
   108.644997       1.49856216E-09
   108.360001       1.71722980E-09
   108.074997       1.86617499E-09
   107.790001       1.94360417E-09
   107.504997       1.95073291E-09
   107.220001       1.89155358E-09
   106.934998       1.77247073E-09
   106.650002       1.60185076E-09
   106.364998       1.38951461E-09
   106.080002       1.14619381E-09
   105.794998       8.83004503E-10
   105.510002       6.10962336E-10
   105.224998       3.40546036E-10
   104.940002       8.13368817E-11
   104.654999      -1.58272936E-10
   104.370003      -3.71291942E-10
   104.084999      -5.52264900E-10
   103.800003      -6.97339908E-10
   103.514999      -8.04278477E-10
   103.230003      -8.72416084E-10
   102.945000      -9.02567299E-10
   102.660004      -8.96896002E-10
   102.375000      -8.58745519E-10
   102.089996      -7.92447385E-10
   101.805000      -7.03100245E-10
   101.519997      -5.96325378E-10
   101.235001      -4.78014350E-10
   100.949997      -3.54075241E-10
   100.665001      -2.30182262E-10
   100.379997      -1.11540270E-10
   100.095001      -2.68228755E-12
   99.8099976       9.26946228E-11
   99.5250015       1.71848508E-10
   99.2399979       2.33057462E-10
   98.9550018       2.75628492E-10
   98.6699982       2.99849923E-10
   98.3850021       3.06894704E-10
   98.0999985       2.98679609E-10
   97.8150024       2.77692425E-10
   97.5299988       2.46798276E-10
   97.2450027       2.09040465E-10
   96.9599991       1.67447584E-10
   96.6750031       1.24859290E-10
   96.3899994       8.37839242E-11
   96.1050034       4.62893023E-11
   95.8199997       1.39344048E-11
   95.5350037      -1.22571788E-11
   95.2500000      -3.17861883E-11
   94.9649963      -4.46351948E-11
   94.6800003      -5.12004154E-11
   94.3949966      -5.22068881E-11
   94.1100006      -4.86137033E-11
   93.8249969      -4.15195239E-11
   93.5400009      -3.20741038E-11
   93.2549973      -2.14002774E-11
   92.9700012      -1.05298565E-11
   92.6849976      -3.55636310E-13
   92.4000015       8.39999945E-12
   92.1149979       1.52015102E-11
   91.8300018       1.97039364E-11
   91.5449982       2.17458065E-11
   91.2600021       2.13338357E-11
   90.9749985       1.86218246E-11
   90.6900024       1.38865898E-11
   90.4049988       7.50252378E-12
   90.1200027      -8.45357652E-14
   89.8349991      -8.38334870E-12
   89.5500031      -1.68820791E-11
   89.2649994      -2.50720347E-11
   88.9800034      -3.24705332E-11
   88.6949997      -3.86424989E-11
   88.4100037      -4.32200040E-11
   88.1250000      -4.59192129E-11
   87.8399963      -4.65542674E-11
   87.5550003      -4.50473200E-11
   87.2699966      -4.14333290E-11
   86.9850006      -3.58592114E-11
   86.6999969      -2.85775535E-11
   86.4150009      -1.99344066E-11
   86.1299973      -1.03515226E-11
   85.8450012      -3.03697768E-13
   85.5599976       9.70723675E-12
   85.2750015       1.91804836E-11
   84.9899979       2.76448742E-11
   84.7050018       3.46861186E-11
   84.4199982       3.99706448E-11
   84.1350021       4.32644927E-11
   83.8499985       4.44459886E-11
   83.5650024       4.35114340E-11
   83.2799988       4.05730970E-11
   82.9950027       3.58498405E-11
   82.7099991       2.96510316E-11
   82.4250031       2.23554734E-11
   82.1399994       1.43864339E-11
   81.8550034       6.18487640E-12
   81.5699997      -1.81769573E-12
   81.2850037      -9.22410759E-12
   81.0000000      -1.56928047E-11
   80.7149963      -2.09546616E-11
   80.4300003      -2.48242572E-11
   80.1449966      -2.72050247E-11
   79.8600006      -2.80883199E-11
   79.5749969      -2.75470809E-11
   79.2900009      -2.57252171E-11
   79.0049973      -2.28232901E-11
   78.7200012      -1.90820016E-11
   78.4349976      -1.47649445E-11
   78.1500015      -1.01415239E-11
   77.8649979      -5.47159843E-12
   77.5800018      -9.92077622E-13
   77.2949982       3.09358095E-12
   77.0100021       6.62283900E-12
   76.7249985       9.47828534E-12
   76.4400024       1.15888575E-11
   76.1549988       1.29285098E-11
   75.8700027       1.35125930E-11
   75.5849991       1.33923480E-11
   75.3000031       1.26483234E-11
   75.0149994       1.13830291E-11
   74.7300034       9.71335339E-12
   74.4449997       7.76315123E-12
   74.1600037       5.65646748E-12
   73.8750000       3.51146607E-12
   73.5899963       1.43538859E-12
   73.3050003      -4.79364270E-13
   73.0199966      -2.15800771E-12
   72.7350006      -3.54507070E-12
   72.4499969      -4.60494273E-12
   72.1650009      -5.32153705E-12
   71.8799973      -5.69708950E-12
   71.5950012      -5.75018982E-12
   71.3099976      -5.51330336E-12
   71.0250015      -5.02984633E-12
   70.7399979      -4.35104817E-12
   70.4550018      -3.53267068E-12
   70.1699982      -2.63180016E-12
   69.8850021      -1.70383878E-12
   69.5999985      -7.99846734E-13
   69.3150024       3.57140261E-14
   69.0299988       7.66708366E-13
   68.7450027       1.36645773E-12
   68.4599991       1.81827144E-12
   68.1750031       2.11538382E-12
   67.8899994       2.26035184E-12
   67.6050034       2.26395703E-12
   67.3199997       2.14371728E-12
   67.0350037       1.92215558E-12
   66.7500000       1.62491787E-12
   66.4649963       1.27890352E-12
   66.1800003       9.10493794E-13
   65.8949966       5.44010637E-13
   65.6100006       2.00475690E-13
   65.3249969      -1.03280347E-13
   65.0400009      -3.55135707E-13
   64.7549973      -5.47827408E-13
   64.4700012      -6.78763090E-13
   64.1849976      -7.49545499E-13
   63.9000015      -7.65289741E-13
   63.6150017      -7.33789331E-13
   63.3300018      -6.64612300E-13
   63.0449982      -5.68203796E-13
   62.7599983      -4.55061824E-13
   62.4749985      -3.35026007E-13
   62.1899986      -2.16717676E-13
   61.9049988      -1.07156207E-13
   61.6199989      -1.15513754E-14
   61.3349991       6.67412699E-14
   61.0499992       1.26123355E-13
   60.7649994       1.66544567E-13
   60.4799995       1.89217443E-13
   60.1949997       1.96290439E-13
   59.9099998       1.90512225E-13
   59.6250000       1.74915394E-13
   59.3400002       1.52542340E-13
   59.0550003       1.26225256E-13
   58.7700005       9.84284879E-14
   58.4850006       7.11533697E-14
   58.2000008       4.59009458E-14
   57.9150009       2.36832801E-14
   57.6300011       5.07073521E-15
   57.3450012      -9.73698678E-15
   57.0600014      -2.08276660E-14
   56.7750015      -2.84920843E-14
   56.4900017      -3.31464389E-14
   56.2050018      -3.52671553E-14
   55.9199982      -3.53406574E-14
   55.6349983      -3.38285105E-14
   55.3499985      -3.11463806E-14
   55.0649986      -2.76543738E-14
   54.7799988      -2.36559362E-14
   54.4949989      -1.94019995E-14
   54.2099991      -1.50976406E-14
   53.9249992      -1.09091999E-14
   53.6399994      -6.97056023E-15
   53.3549995      -3.38775507E-15
   53.0699997      -2.41843682E-16
   52.7849998       2.40957453E-15
   52.5000000       4.53164914E-15
   52.2150002       6.11188312E-15
   51.9300003       7.15944350E-15
   51.6450005       7.70362659E-15
   51.3600006       7.79146391E-15
   51.0750008       7.48444326E-15
   50.7900009       6.85449173E-15
   50.5050011       5.97956980E-15
   50.2200012       4.93920158E-15
   49.9350014       3.81032774E-15
   49.6500015       2.66373397E-15
   49.3650017       1.56123376E-15
   49.0800018       5.53706179E-16
   48.7949982      -3.20019821E-16
   48.5099983      -1.03349359E-15
   48.2249985      -1.57231264E-15
   47.9399986      -1.93325805E-15
   47.6549988      -2.12300740E-15
   47.3699989      -2.15654165E-15
   47.0849991      -2.05536335E-15
   46.7999992      -1.84560199E-15
   46.5149994      -1.55608942E-15
   46.2299995      -1.21648235E-15
   45.9449997      -8.55509788E-16
   45.6599998      -4.99414914E-16
   45.3750000      -1.70665016E-16
   45.0900002       1.13017012E-16
   44.8050003       3.39255304E-16
   44.5200005       5.01237517E-16
   44.2350006       5.97549028E-16
   43.9500008       6.31652903E-16
   43.6650009       6.11073073E-16
   43.3800011       5.46357215E-16
   43.0950012       4.49909173E-16
   42.8100014       3.34793002E-16
   42.5250015       2.13606820E-16
   42.2400017       9.75152769E-17
   41.9550018      -4.49079870E-18
   41.6699982      -8.60628488E-17
   41.3849983      -1.43673834E-16
   41.0999985      -1.76521349E-16
   40.8149986      -1.86192784E-16
   40.5299988      -1.76151685E-16
   40.2449989      -1.51116395E-16
   39.9599991      -1.16405210E-16
   39.6749992      -7.73182064E-17
   39.3899994      -3.86140847E-17
   39.1049995      -4.12326333E-18
   38.8199997       2.34817948E-17
   38.5349998       4.27572736E-17
   38.2500000       5.34159755E-17
   37.9650002       5.61426077E-17
   37.6800003       5.23348075E-17
   37.3950005       4.38113333E-17
   37.1100006       3.25264324E-17
   36.8250008       2.03227110E-17
   36.5400009       8.74463745E-18
   36.2550011      -1.07608536E-18
   35.9700012      -8.46291876E-18
   35.6850014      -1.31734137E-17
   35.4000015      -1.53299877E-17
   35.1150017      -1.53212560E-17
   34.8300018      -1.36925903E-17
   34.5449982      -1.10423483E-17
   34.2599983      -7.93585995E-18
   33.9749985      -4.84433983E-18
   33.6899986      -2.11088800E-18
   33.4049988       5.84314892E-20
   33.1199989       1.58340815E-18
   32.8349991       2.48494052E-18
   32.5499992       2.85356859E-18
   32.2649994       2.81737034E-18
   31.9799995       2.51382380E-18
   31.6949997       2.06852808E-18
   31.4099998       1.58193908E-18
   31.1250000       1.12378949E-18
   30.8400002       7.33801124E-19
   30.5550003       4.26727537E-19
   30.2700005       1.99615161E-19
   29.9850006       3.94129622E-20
   29.7000008      -7.04620363E-20
   29.4150009      -1.45413156E-19
   29.1299992      -1.97039721E-19
   28.8449993      -2.32387165E-19
   28.5599995      -2.54567418E-19
   28.2749996      -2.64133038E-19
   27.9899998      -2.60630911E-19
   27.7049999      -2.43904285E-19
   27.4200001      -2.14902169E-19
   27.1350002      -1.75941006E-19
   26.8500004      -1.30501196E-19
   26.5650005      -8.27250664E-20
   26.2800007      -3.67987064E-20
   25.9950008       3.62283096E-21
   25.7099991       3.58401010E-20
   25.4249992       5.83339400E-20
   25.1399994       7.07903753E-20
   24.8549995       7.39606355E-20
   24.5699997       6.94082470E-20
   24.2849998       5.91992808E-20
   24.0000000       4.55864632E-20
   23.7150002       3.07268775E-20
   23.4300003       1.64608942E-20
   23.1450005       4.16737228E-21
   22.8600006      -5.30083953E-21
   22.5750008      -1.16068635E-20
   22.2900009      -1.48591914E-20
   22.0049992      -1.54997523E-20
   21.7199993      -1.41726622E-20
   21.4349995      -1.15947215E-20
   21.1499996      -8.44511743E-21
   20.8649998      -5.28595351E-21
   20.5799999      -2.51830937E-21
   20.2950001      -3.72189169E-22
   20.0100002       1.07629476E-21
   19.7250004       1.86999627E-21
   19.4400005       2.12818062E-21
   19.1550007       2.00512781E-21
   18.8700008       1.65614271E-21
   18.5849991       1.21419370E-21
   18.2999992       7.77671551E-22
   18.0149994       4.07699472E-22
   17.7299995       1.32278557E-22
   17.4449997      -4.57500766E-23
   17.1599998      -1.39594705E-22
   16.8750000      -1.70200527E-22
   16.5900002      -1.59842695E-22
   16.3050003      -1.27998665E-22
   16.0200005      -8.93257117E-23
   15.7349997      -5.32632699E-23
   15.4499998      -2.46788902E-23
   15.1650000      -5.02083421E-24
   14.8800001       6.43364859E-24
   14.5950003       1.14929248E-23
   14.3100004       1.22503598E-23
   14.0249996       1.05874884E-23
   13.7399998       7.93697017E-24
   13.4549999       5.23340146E-24
   13.1700001       2.97691690E-24
   12.8850002       1.34689569E-24
   12.6000004       3.21807794E-25
   12.3149996      -2.20003396E-25
   12.0299997      -4.28688611E-25
   11.7449999      -4.40380417E-25
   11.4600000      -3.58191736E-25
   11.1750002      -2.49121165E-25
   10.8900003      -1.49668644E-25
   10.6049995      -7.46647048E-26
   10.3199997      -2.58692667E-26
   10.0349998       1.30985163E-27
   9.75000000       1.33848803E-26
   9.46500015       1.63567751E-26
   9.18000031       1.47303026E-26
   8.89500046       1.14023588E-26
   8.60999966       7.96523410E-27
   8.32499981       5.12174067E-27
   8.03999996       3.05363916E-27
   7.75500011       1.68725734E-27
   7.46999979       8.57317700E-28
   7.18499994       3.93379256E-28
   6.90000010       1.56479244E-28
   6.61499977       4.80241465E-29
   6.32999992       5.44137125E-30
   6.04500008      -6.99741205E-30
   5.76000023      -7.63211280E-30
   5.47499990      -4.90145823E-30
   5.19000006      -2.20352190E-30
   4.90500021      -5.51853079E-31
   4.61999989       1.03319159E-31
   4.33500004       1.79158998E-31
   4.05000019       6.94274176E-32
   3.76500010      -1.61882778E-32
   3.48000002      -3.52373004E-32
   3.19499993      -2.01362961E-32
   2.91000009      -4.19019582E-33
   2.62500000       1.87340078E-33
   2.33999991       1.56428837E-33
   2.05500007       8.62519267E-35
   1.76999998      -5.11923979E-34
   1.48500001      -4.03325841E-34
   1.20000005      -1.62921279E-34
  0.915000021      -2.99226449E-35
  0.629999995       4.78175016E-36
  0.344999999       5.38934062E-36
   5.99999987E-02   2.96681619E-36
 -0.224999994       6.78792384E-37
 -0.509999990       1.49786430E-37
 -0.795000017       3.60270556E-38
  -1.08000004      -5.00084186E-39
  -1.36500001      -1.11164447E-39
  -1.64999998       1.13018925E-40
  -1.93499994      -9.52065999E-40
  -2.22000003      -2.29084273E-41
  -2.50500011       0.00000000    
  -2.78999996       0.00000000    
  -3.07500005       0.00000000    
  -3.35999990       0.00000000    
  -3.64499998       0.00000000    
  -3.93000007       0.00000000    
  -4.21500015       0.00000000    
  -4.50000000       0.00000000    
