   166.214996      -1.26701152E-05
   165.929993      -1.27238536E-05
   165.645004      -1.27095263E-05
   165.360001      -1.26278601E-05
   165.074997      -1.24802546E-05
   164.789993      -1.22688662E-05
   164.505005      -1.19966626E-05
   164.220001      -1.16674464E-05
   163.934998      -1.12858488E-05
   163.649994      -1.08572822E-05
   163.365005      -1.03878574E-05
   163.080002      -9.88426928E-06
   162.794998      -9.35365188E-06
   162.509995      -8.80340122E-06
   162.225006      -8.24100243E-06
   161.940002      -7.67383244E-06
   161.654999      -7.10899349E-06
   161.369995      -6.55313261E-06
   161.085007      -6.01231250E-06
   160.800003      -5.49189463E-06
   160.514999      -4.99646103E-06
   160.229996      -4.52976474E-06
   159.945007      -4.09471522E-06
   159.660004      -3.69338841E-06
   159.375000      -3.32705054E-06
   159.089996      -2.99620933E-06
   158.804993      -2.70066630E-06
   158.520004      -2.43958220E-06
   158.235001      -2.21154210E-06
   157.949997      -2.01462012E-06
   157.664993      -1.84644443E-06
   157.380005      -1.70425949E-06
   157.095001      -1.58498381E-06
   156.809998      -1.48526419E-06
   156.524994      -1.40153406E-06
   156.240005      -1.33007063E-06
   155.955002      -1.26705675E-06
   155.669998      -1.20864183E-06
   155.384995      -1.15100750E-06
   155.100006      -1.09043390E-06
   154.815002      -1.02336503E-06
   154.529999      -9.46471630E-07
   154.244995      -8.56709278E-07
   153.960007      -7.51373875E-07
   153.675003      -6.28146722E-07
   153.389999      -4.85130329E-07
   153.104996      -3.20870583E-07
   152.820007      -1.34366616E-07
   152.535004       7.49314566E-08
   152.250000       3.07138265E-07
   151.964996       5.61960576E-07
   151.679993       8.38733683E-07
   151.395004       1.13646524E-06
   151.110001       1.45388435E-06
   150.824997       1.78949426E-06
   150.539993       2.14162333E-06
   150.255005       2.50847233E-06
   149.970001       2.88815750E-06
   149.684998       3.27874636E-06
   149.399994       3.67828784E-06
   149.115005       4.08483402E-06
   148.830002       4.49645268E-06
   148.544998       4.91124092E-06
   148.259995       5.32733111E-06
   147.975006       5.74289743E-06
   147.690002       6.15615818E-06
   147.404999       6.56538441E-06
   147.119995       6.96890811E-06
   146.835007       7.36513266E-06
   146.550003       7.75254375E-06
   146.264999       8.12972212E-06
   145.979996       8.49535263E-06
   145.695007       8.84823294E-06
   145.410004       9.18726892E-06
   145.125000       9.51146922E-06
   144.839996       9.81993253E-06
   144.554993       1.01118148E-05
   144.270004       1.03863094E-05
   143.985001       1.06426041E-05
   143.699997       1.08798449E-05
   143.414993       1.10970968E-05
   143.130005       1.12933158E-05
   142.845001       1.14673285E-05
   142.559998       1.16178198E-05
   142.274994       1.17433483E-05
   141.990005       1.18423641E-05
   141.705002       1.19132546E-05
   141.419998       1.19544020E-05
   141.134995       1.19642500E-05
   140.850006       1.19413826E-05
   140.565002       1.18846046E-05
   140.279999       1.17930176E-05
   139.994995       1.16660931E-05
   139.710007       1.15037283E-05
   139.425003       1.13062843E-05
   139.139999       1.10746068E-05
   138.854996       1.08100185E-05
   138.570007       1.05143044E-05
   138.285004       1.01896567E-05
   138.000000       9.83862174E-06
   137.714996       9.46402088E-06
   137.429993       9.06887635E-06
   137.145004       8.65632137E-06
   136.860001       8.22952461E-06
   136.574997       7.79161383E-06
   136.289993       7.34562263E-06
   136.005005       6.89443868E-06
   135.720001       6.44077954E-06
   135.434998       5.98717952E-06
   135.149994       5.53598784E-06
   134.865005       5.08938456E-06
   134.580002       4.64940422E-06
   134.294998       4.21795994E-06
   134.009995       3.79687253E-06
   133.725006       3.38789050E-06
   133.440002       2.99270800E-06
   133.154999       2.61297009E-06
   132.869995       2.25026361E-06
   132.585007       1.90610388E-06
   132.300003       1.58190448E-06
   132.014999       1.27894441E-06
   131.729996       9.98326072E-07
   131.445007       7.40936343E-07
   131.160004       5.07408402E-07
   130.875000       2.98090640E-07
   130.589996       1.13026381E-07
   130.304993      -4.80551030E-08
   130.020004      -1.85733711E-07
   129.735001      -3.00880089E-07
   129.449997      -3.94625118E-07
   129.164993      -4.68318490E-07
   128.880005      -5.23480139E-07
   128.595001      -5.61747527E-07
   128.309998      -5.84821805E-07
   128.024994      -5.94417202E-07
   127.739998      -5.92215770E-07
   127.455002      -5.79830214E-07
   127.169998      -5.58775810E-07
   126.885002      -5.30452382E-07
   126.599998      -4.96136238E-07
   126.315002      -4.56979848E-07
   126.029999      -4.14019439E-07
   125.745003      -3.68187358E-07
   125.459999      -3.20327132E-07
   125.175003      -2.71209672E-07
   124.889999      -2.21548561E-07
   124.605003      -1.72012761E-07
   124.320000      -1.23235949E-07
   124.035004      -7.58218306E-08
   123.750000      -3.03452303E-08
   123.464996       1.26507169E-08
   123.180000       5.26604005E-08
   122.894997       8.92238461E-08
   122.610001       1.21936225E-07
   122.324997       1.50457197E-07
   122.040001       1.74519641E-07
   121.754997       1.93936501E-07
   121.470001       2.08605655E-07
   121.184998       2.18511971E-07
   120.900002       2.23726857E-07
   120.614998       2.24404928E-07
   120.330002       2.20778631E-07
   120.044998       2.13150628E-07
   119.760002       2.01885015E-07
   119.474998       1.87397532E-07
   119.190002       1.70145370E-07
   118.904999       1.50616813E-07
   118.620003       1.29321066E-07
   118.334999       1.06778231E-07
   118.050003       8.35096827E-08
   117.764999       6.00287606E-08
   117.480003       3.68315973E-08
   117.195000       1.43881600E-08
   116.910004      -6.86637280E-09
   116.625000      -2.65399720E-08
   116.339996      -4.42914825E-08
   116.055000      -5.98375109E-08
   115.769997      -7.29581586E-08
   115.485001      -8.35012273E-08
   115.199997      -9.13844573E-08
   114.915001      -9.65958193E-08
   114.629997      -9.91914746E-08
   114.345001      -9.92915403E-08
   114.059998      -9.70737659E-08
   113.775002      -9.27652977E-08
   113.489998      -8.66331362E-08
   113.205002      -7.89735282E-08
   112.919998      -7.01010379E-08
   112.635002      -6.03375767E-08
   112.349998      -5.00020576E-08
   112.065002      -3.94009732E-08
   111.779999      -2.88201942E-08
   111.495003      -1.85183158E-08
   111.209999      -8.72158878E-09
   110.925003       3.79471038E-10
   110.639999       8.63190408E-09
   110.355003       1.59206532E-08
   110.070000       2.21676135E-08
   109.785004       2.73295981E-08
   109.500000       3.13954445E-08
   109.214996       3.43824951E-08
   108.930000       3.63326258E-08
   108.644997       3.73080766E-08
   108.360001       3.73872417E-08
   108.074997       3.66605768E-08
   107.790001       3.52267335E-08
   107.504997       3.31890249E-08
   107.220001       3.06522701E-08
   106.934998       2.77200538E-08
   106.650002       2.44924205E-08
   106.364998       2.10640021E-08
   106.080002       1.75225292E-08
   105.794998       1.39477594E-08
   105.510002       1.04107158E-08
   105.224998       6.97327129E-09
   104.940002       3.68803188E-09
   104.654999       5.98486372E-10
   104.370003      -2.26057995E-09
   104.084999      -4.86245533E-09
   103.800003      -7.18768822E-09
   103.514999      -9.22312715E-09
   103.230003      -1.09608882E-08
   102.945000      -1.23973134E-08
   102.660004      -1.35319844E-08
   102.375000      -1.43668908E-08
   102.089996      -1.49057939E-08
   101.805000      -1.51538586E-08
   101.519997      -1.51175623E-08
   101.235001      -1.48049066E-08
   100.949997      -1.42258720E-08
   100.665001      -1.33930742E-08
   100.379997      -1.23225172E-08
   100.095001      -1.10343503E-08
   99.8099976      -9.55349311E-09
   99.5250015      -7.91003441E-09
   99.2399979      -6.13929974E-09
   98.9550018      -4.28152092E-09
   98.6699982      -2.38108844E-09
   98.3850021      -4.85383955E-10
   98.0999985       1.35674416E-09
   97.8150024       3.09677950E-09
   97.5299988       4.68848738E-09
   97.2450027       6.08989392E-09
   96.9599991       7.26514715E-09
   96.6750031       8.18612644E-09
   96.3899994       8.83369378E-09
   96.1050034       9.19849885E-09
   95.8199997       9.28128507E-09
   95.5350037       9.09268749E-09
   95.2500000       8.65253380E-09
   94.9649963       7.98871191E-09
   94.6800003       7.13567916E-09
   94.3949966       6.13270590E-09
   94.1100006       5.02197528E-09
   93.8249969       3.84664522E-09
   93.5400009       2.64898836E-09
   93.2549973       1.46870205E-09
   92.9700012       3.41477208E-10
   92.6849976      -7.02120195E-10
   92.4000015      -1.63741276E-09
   92.1149979      -2.44601561E-09
   91.8300018      -3.11588311E-09
   91.5449982      -3.64104036E-09
   91.2600021      -4.02104572E-09
   90.9749985      -4.26024815E-09
   90.6900024      -4.36690684E-09
   90.4049988      -4.35225278E-09
   90.1200027      -4.22955049E-09
   89.8349991      -4.01323375E-09
   89.5500031      -3.71814757E-09
   89.2649994      -3.35894468E-09
   88.9800034      -2.94964653E-09
   88.6949997      -2.50336774E-09
   88.4100037      -2.03219241E-09
   88.1250000      -1.54717672E-09
   87.8399963      -1.05844222E-09
   87.5550003      -5.75318293E-10
   87.2699966      -1.06497249E-10
   86.9850006       3.39834605E-10
   86.6999969       7.55917051E-10
   86.4150009       1.13440768E-09
   86.1299973       1.46844803E-09
   85.8450012       1.75180381E-09
   85.5599976       1.97906447E-09
   85.2750015       2.14587770E-09
   84.9899979       2.24919749E-09
   84.7050018       2.28751196E-09
   84.4199982       2.26102936E-09
   84.1350021       2.17179652E-09
   83.8499985       2.02373118E-09
   83.5650024       1.82256332E-09
   83.2799988       1.57568003E-09
   82.9950027       1.29188205E-09
   82.7099991       9.81067894E-10
   82.4250031       6.53860410E-10
   82.1399994       3.21203480E-10
   81.8550034      -6.05330413E-12
   81.5699997      -3.17554344E-10
   81.2850037      -6.03805950E-10
   81.0000000      -8.56494042E-10
   80.7149963      -1.06874032E-09
   80.4300003      -1.23529054E-09
   80.1449966      -1.35263156E-09
   79.8600006      -1.41903966E-09
   79.5749969      -1.43456369E-09
   79.2900009      -1.40095002E-09
   79.0049973      -1.32151690E-09
   78.7200012      -1.20098698E-09
   78.4349976      -1.04528353E-09
   78.1500015      -8.61300919E-10
   77.8649979      -6.56654287E-10
   77.5800018      -4.39413200E-10
   77.2949982      -2.17827367E-10
   77.0100021      -4.76698115E-14
   76.7249985       2.06149264E-10
   76.4400024       3.93627686E-10
   76.1549988       5.56141078E-10
   75.8700027       6.88554269E-10
   75.5849991       7.87029220E-10
   75.3000031       8.49165238E-10
   75.0149994       8.74084138E-10
   74.7300034       8.62453775E-10
   74.4449997       8.16444801E-10
   74.1600037       7.39618589E-10
   73.8750000       6.36750319E-10
   73.5899963       5.13592002E-10
   73.3050003       3.76587123E-10
   73.0199966       2.32551131E-10
   72.7350006       8.83341872E-11
   72.4499969      -4.95146632E-11
   72.1650009      -1.75062548E-10
   71.8799973      -2.83269047E-10
   71.5950012      -3.70207504E-10
   71.3099976      -4.33219099E-10
   71.0250015      -4.70991968E-10
   70.7399979      -4.83562024E-10
   70.4550018      -4.72238471E-10
   70.1699982      -4.39460524E-10
   69.8850021      -3.88597154E-10
   69.5999985      -3.23704563E-10
   69.3150024      -2.49258086E-10
   69.0299988      -1.69876377E-10
   68.7450027      -9.00556643E-11
   68.4599991      -1.39290116E-11
   68.1750031       5.49353271E-11
   67.8899994       1.13686914E-10
   67.6050034       1.60291683E-10
   67.3199997       1.93573962E-10
   67.0350037       2.13203483E-10
   66.7500000       2.19633312E-10
   66.4649963       2.13996418E-10
   66.1800003       1.97971459E-10
   65.8949966       1.73628792E-10
   65.6100006       1.43268605E-10
   65.3249969       1.09262016E-10
   65.0400009       7.39048822E-11
   64.7549973       3.92924235E-11
   64.4700012       7.22007220E-12
   64.1849976      -2.08858018E-11
   63.9000015      -4.40064443E-11
   63.6150017      -6.15395720E-11
   63.3300018      -7.32816169E-11
   63.0449982      -7.93876909E-11
   62.7599983      -8.03147410E-11
   62.4749985      -7.67535896E-11
   62.1899986      -6.95557570E-11
   61.9049988      -5.96603184E-11
   61.6199989      -4.80255939E-11
   61.3349991      -3.55691830E-11
   61.0499992      -2.31191663E-11
   60.7649994      -1.13778527E-11
   60.4799995      -8.98621780E-13
   60.1949997       7.92461409E-12
   59.9099998       1.48564876E-11
   59.6250000       1.98095967E-11
   59.3400002       2.28264005E-11
   59.0550003       2.40559048E-11
   58.7700005       2.37274592E-11
   58.4850006       2.21237924E-11
   58.2000008       1.95551405E-11
   57.9150009       1.63359534E-11
   57.6300011       1.27652212E-11
   57.3450012       9.11106867E-12
   57.0600014       5.59987993E-12
   56.7750015       2.40986137E-12
   56.4900017      -3.31322372E-13
   56.2050018      -2.54537906E-12
   55.9199982      -4.19939864E-12
   55.6349983      -5.29976193E-12
   55.3499985      -5.88470982E-12
   55.0649986      -6.01626821E-12
   54.7799988      -5.77215402E-12
   54.4949989      -5.23817231E-12
   54.2099991      -4.50149076E-12
   53.9249992      -3.64506212E-12
   53.6399994      -2.74332727E-12
   53.3549995      -1.85924279E-12
   53.0699997      -1.04257011E-12
   52.7849998      -3.29307599E-13
   52.5000000       2.57912317E-13
   52.2150002       7.08659748E-13
   51.9300003       1.02299766E-12
   51.6450005       1.20943088E-12
   51.3600006       1.28271374E-12
   51.0750008       1.26168184E-12
   50.7900009       1.16724610E-12
   50.5050011       1.02064960E-12
   50.2200012       8.42052068E-13
   49.9350014       6.49467622E-13
   49.6500015       4.58056715E-13
   49.3650017       2.79744327E-13
   49.0800018       1.23121917E-13
   48.7949982      -6.41830195E-15
   48.5099983      -1.06372322E-13
   48.2249985      -1.76691900E-13
   47.9399986      -2.19282017E-13
   47.6549988      -2.37472477E-13
   47.3699989      -2.35502942E-13
   47.0849991      -2.18051353E-13
   46.7999992      -1.89827578E-13
   46.5149994      -1.55246923E-13
   46.2299995      -1.18189529E-13
   45.9449997      -8.18451142E-14
   45.6599998      -4.86371333E-14
   45.3750000      -2.02153747E-14
   45.0900002       2.49541179E-15
   44.8050003       1.92056234E-14
   44.5200005       3.01435580E-14
   44.2350006       3.59242631E-14
   43.9500008       3.74164709E-14
   43.6650009       3.56174339E-14
   43.3800011       3.15435713E-14
   43.0950012       2.61424064E-14
   42.8100014       2.02288425E-14
   42.5250015       1.44464620E-14
   42.2400017       9.25245513E-15
   41.9550018       4.92289662E-15
   41.6699982       1.57374952E-15
   41.3849983      -8.07577517E-16
   41.0999985      -2.32550312E-15
   40.8149986      -3.13923391E-15
   40.5299988      -3.42933253E-15
   40.2449989      -3.37068397E-15
   39.9599991      -3.11337717E-15
   39.6749992      -2.77183845E-15
   39.3899994      -2.42155094E-15
   39.1049995      -2.10196414E-15
   38.8199997      -1.82373436E-15
   38.5349998      -1.57825807E-15
   38.2500000      -1.34761460E-15
   37.9650002      -1.11328050E-15
   37.6800003      -8.62530103E-16
   37.3950005      -5.91939817E-16
   37.1100006      -3.08012573E-16
   36.8250008      -2.53894950E-17
   36.5400009       2.36550388E-16
   36.2550011       4.57776098E-16
   35.9700012       6.21474797E-16
   35.6850014       7.17014872E-16
   35.4000015       7.41566916E-16
   35.1150017       7.00268872E-16
   34.8300018       6.05080262E-16
   34.5449982       4.72677895E-16
   34.2599983       3.21850921E-16
   33.9749985       1.70870540E-16
   33.6899986       3.52465828E-17
   33.4049988      -7.38361267E-17
   33.1199989      -1.50258457E-16
   32.8349991      -1.92891716E-16
   32.5499992      -2.04840942E-16
   32.2649994      -1.92228714E-16
   31.9799995      -1.62779298E-16
   31.6949997      -1.24450779E-16
   31.4099998      -8.43129978E-17
   31.1250000      -4.77922756E-17
   30.8400002      -1.83243716E-17
   30.5550003       2.61805352E-18
   30.2700005       1.52096445E-17
   29.9850006       2.07828219E-17
   29.7000008       2.12834250E-17
   29.4150009       1.87728789E-17
   29.1299992       1.50483145E-17
   28.8449993       1.14155788E-17
   28.5599995       8.61542771E-18
   28.2749996       6.87579574E-18
   27.9899998       6.04660053E-18
   27.7049999       5.76885520E-18
   27.4200001       5.63554388E-18
   27.1350002       5.31423012E-18
   26.8500004       4.61673033E-18
   26.5650005       3.51568511E-18
   26.2800007       2.11867342E-18
   25.9950008       6.16484682E-19
   25.7099991      -7.76744619E-19
   25.4249992      -1.87659922E-18
   25.1399994      -2.56476365E-18
   24.8549995      -2.80459185E-18
   24.5699997      -2.63695894E-18
   24.2849998      -2.16123145E-18
   24.0000000      -1.50813565E-18
   23.7150002      -8.11495562E-19
   23.4300003      -1.84589309E-19
   23.1450005       2.95182504E-19
   22.8600006       5.92010838E-19
   22.5750008       7.08610476E-19
   22.2900009       6.76775758E-19
   22.0049992       5.44736380E-19
   21.7199993       3.64459578E-19
   21.4349995       1.81377767E-19
   21.1499996       2.79704048E-20
   20.8649998      -7.84901279E-20
   20.5799999      -1.34654444E-19
   20.2950001      -1.47480952E-19
   20.0100002      -1.29670526E-19
   19.7250004      -9.53599918E-20
   19.4400005      -5.68877052E-20
   19.1550007      -2.29767122E-20
   18.8700008       1.73254191E-21
   18.5849991       1.61430872E-20
   18.2999992       2.16124022E-20
   18.0149994       2.07417106E-20
   17.7299995       1.63530731E-20
   17.4449997       1.08119267E-20
   17.1599998       5.71589841E-21
   16.8750000       1.87766929E-21
   16.5900002      -5.11666391E-22
   16.3050003      -1.65028934E-21
   16.0200005      -1.90716749E-21
   15.7349997      -1.66242714E-21
   15.4499998      -1.21809050E-21
   15.1650000      -7.68509354E-22
   14.8800001      -4.09928351E-22
   14.5950003      -1.68351437E-22
   14.3100004      -3.00614097E-23
   14.0249996       3.40427086E-23
   13.7399998       5.32307120E-23
   13.4549999       4.99459173E-23
   13.1700001       3.84171979E-23
   12.8850002       2.61340372E-23
   12.6000004       1.61512202E-23
   12.3149996       9.11249835E-24
   12.0299997       4.61876403E-24
   11.7449999       1.98549368E-24
   11.4600000       5.80744706E-25
   11.1750002      -7.14724435E-26
   10.8900003      -2.94945725E-25
   10.6049995      -2.98689511E-25
   10.3199997      -2.13060188E-25
   10.0349998      -1.14016791E-25
   9.75000000      -3.82851793E-26
   9.46500015       4.59373465E-27
   9.18000031       2.05252086E-26
   8.89500046       2.05827107E-26
   8.60999966       1.44045647E-26
   8.32499981       7.80096691E-27
   8.03999996       3.16563121E-27
   7.75500011       8.05685877E-28
   7.46999979       7.92376630E-29
   7.18499994       1.21046093E-28
   6.90000010       2.67469323E-28
   6.61499977       2.34332182E-28
   6.32999992       5.74871250E-29
   6.04500008      -1.07698532E-28
   5.76000023      -1.63941789E-28
   5.47499990      -1.23184706E-28
   5.19000006      -5.27849430E-29
   4.90500021      -4.98104315E-30
   4.61999989       9.61824461E-30
   4.33500004       6.18729182E-30
   4.05000019       7.52517253E-31
   3.76500010      -8.26898586E-31
   3.48000002       1.11506681E-32
   3.19499993       7.71905716E-31
   2.91000009       7.11879097E-31
   2.62500000       3.01594658E-31
   2.33999991       2.29271754E-32
   2.05500007      -4.33312079E-32
   1.76999998      -1.85941092E-32
   1.48500001       3.64571675E-33
   1.20000005       5.96313150E-33
  0.915000021       1.45992817E-33
  0.629999995      -9.88687819E-34
  0.344999999      -9.61535645E-34
   5.99999987E-02  -3.44707933E-34
 -0.224999994      -1.79107471E-35
 -0.509999990       3.77777740E-35
 -0.795000017       1.54691240E-35
  -1.08000004       9.68499116E-37
  -1.36500001      -5.57757684E-37
  -1.64999998      -4.45014008E-37
  -1.93499994      -1.14190724E-37
  -2.22000003      -6.82432352E-43
  -2.50500011      -5.88545355E-44
  -2.78999996       0.00000000    
  -3.07500005       0.00000000    
  -3.35999990       0.00000000    
  -3.64499998       0.00000000    
  -3.93000007       0.00000000    
  -4.21500015       0.00000000    
  -4.50000000       0.00000000    
