   166.214996       6.50288712E-07
   165.929993       3.76167947E-07
   165.645004       1.09472083E-07
   165.360001      -1.48047292E-07
   165.074997      -3.94521351E-07
   164.789993      -6.27934469E-07
   164.505005      -8.46120429E-07
   164.220001      -1.04679566E-06
   163.934998      -1.22761605E-06
   163.649994      -1.38625853E-06
   163.365005      -1.52051916E-06
   163.080002      -1.62840900E-06
   162.794998      -1.70826070E-06
   162.509995      -1.75881837E-06
   162.225006      -1.77930599E-06
   161.940002      -1.76947913E-06
   161.654999      -1.72964064E-06
   161.369995      -1.66063660E-06
   161.085007      -1.56381827E-06
   160.800003      -1.44098897E-06
   160.514999      -1.29433067E-06
   160.229996      -1.12632233E-06
   159.945007      -9.39655422E-07
   159.660004      -7.37147786E-07
   159.375000      -5.21670188E-07
   159.089996      -2.96082931E-07
   158.804993      -6.31881818E-08
   158.520004       1.74301846E-07
   158.235001       4.13781493E-07
   157.949997       6.52757535E-07
   157.664993       8.88850025E-07
   157.380005       1.11979114E-06
   157.095001       1.34342656E-06
   156.809998       1.55772113E-06
   156.524994       1.76077288E-06
   156.240005       1.95083612E-06
   155.955002       2.12635496E-06
   155.669998       2.28600334E-06
   155.384995       2.42873102E-06
   155.100006       2.55380996E-06
   154.815002       2.66087591E-06
   154.529999       2.74995932E-06
   154.244995       2.82150222E-06
   153.960007       2.87635703E-06
   153.675003       2.91576998E-06
   153.389999       2.94134202E-06
   153.104996       2.95497534E-06
   152.820007       2.95880409E-06
   152.535004       2.95511336E-06
   152.250000       2.94625397E-06
   151.964996       2.93455355E-06
   151.679993       2.92223285E-06
   151.395004       2.91133438E-06
   151.110001       2.90366665E-06
   150.824997       2.90076105E-06
   150.539993       2.90384855E-06
   150.255005       2.91385254E-06
   149.970001       2.93140420E-06
   149.684998       2.95686550E-06
   149.399994       2.99037106E-06
   149.115005       3.03187312E-06
   148.830002       3.08119502E-06
   148.544998       3.13807391E-06
   148.259995       3.20220920E-06
   147.975006       3.27329053E-06
   147.690002       3.35102527E-06
   147.404999       3.43515057E-06
   147.119995       3.52543225E-06
   146.835007       3.62165633E-06
   146.550003       3.72360932E-06
   146.264999       3.83105134E-06
   145.979996       3.94368863E-06
   145.695007       4.06113850E-06
   145.410004       4.18290938E-06
   145.125000       4.30837918E-06
   144.839996       4.43678255E-06
   144.554993       4.56721136E-06
   144.270004       4.69861516E-06
   143.985001       4.82980568E-06
   143.699997       4.95947597E-06
   143.414993       5.08621679E-06
   143.130005       5.20854019E-06
   142.845001       5.32489594E-06
   142.559998       5.43369970E-06
   142.274994       5.53334758E-06
   141.990005       5.62223113E-06
   141.705002       5.69875556E-06
   141.419998       5.76135290E-06
   141.134995       5.80850656E-06
   140.850006       5.83876863E-06
   140.565002       5.85079124E-06
   140.279999       5.84335839E-06
   139.994995       5.81541235E-06
   139.710007       5.76609455E-06
   139.425003       5.69478334E-06
   139.139999       5.60113085E-06
   138.854996       5.48509661E-06
   138.570007       5.34697392E-06
   138.285004       5.18741035E-06
   138.000000       5.00741044E-06
   137.714996       4.80832887E-06
   137.429993       4.59185185E-06
   137.145004       4.35996299E-06
   136.860001       4.11490328E-06
   136.574997       3.85911517E-06
   136.289993       3.59518162E-06
   136.005005       3.32576406E-06
   135.720001       3.05353660E-06
   135.434998       2.78112111E-06
   135.149994       2.51103870E-06
   134.865005       2.24565338E-06
   134.580002       1.98714042E-06
   134.294998       1.73745480E-06
   134.009995       1.49831828E-06
   133.725006       1.27121041E-06
   133.440002       1.05737320E-06
   133.154999       8.57816872E-07
   132.869995       6.73336444E-07
   132.585007       5.04525929E-07
   132.300003       3.51793943E-07
   132.014999       2.15376943E-07
   131.729996       9.53501953E-08
   131.445007      -8.36685210E-09
   131.160004      -9.60083781E-08
   130.875000      -1.67962256E-07
   130.589996      -2.24773061E-07
   130.304993      -2.67143889E-07
   130.020004      -2.95936502E-07
   129.735001      -3.12168055E-07
   129.449997      -3.17000882E-07
   129.164993      -3.11726609E-07
   128.880005      -2.97742503E-07
   128.595001      -2.76520609E-07
   128.309998      -2.49571002E-07
   128.024994      -2.18401041E-07
   127.739998      -1.84472398E-07
   127.455002      -1.49159106E-07
   127.169998      -1.13708928E-07
   126.885002      -7.92107429E-08
   126.599998      -4.65702321E-08
   126.315002      -1.64950436E-08
   126.029999       1.05091074E-08
   125.745003       3.41319684E-08
   125.459999       5.42423422E-08
   125.175003       7.08632086E-08
   124.889999       8.41409360E-08
   124.605003       9.43106500E-08
   124.320000       1.01660859E-07
   124.035004       1.06499883E-07
   123.750000       1.09126390E-07
   123.464996       1.09806130E-07
   123.180000       1.08756225E-07
   122.894997       1.06137733E-07
   122.610001       1.02056333E-07
   122.324997       9.65705595E-08
   122.040001       8.97061483E-08
   121.754997       8.14747096E-08
   121.470001       7.18944406E-08
   121.184998       6.10108728E-08
   120.900002       4.89153216E-08
   120.614998       3.57590686E-08
   120.330002       2.17620322E-08
   120.044998       7.21468263E-09
   119.760002      -7.52699325E-09
   119.474998      -2.20533405E-08
   119.190002      -3.59189229E-08
   118.904999      -4.86649512E-08
   118.620003      -5.98447301E-08
   118.334999      -6.90499746E-08
   118.050003      -7.59361285E-08
   117.764999      -8.02445825E-08
   117.480003      -8.18201542E-08
   117.195000      -8.06225557E-08
   116.910004      -7.67309629E-08
   116.625000      -7.03413505E-08
   116.339996      -6.17567650E-08
   116.055000      -5.13713694E-08
   115.769997      -3.96491870E-08
   115.485001      -2.70992437E-08
   115.199997      -1.42487675E-08
   114.915001      -1.61613833E-09
   114.629997       1.03146345E-08
   114.345001       2.11164384E-08
   114.059998       3.04372527E-08
   113.775002       3.80132334E-08
   113.489998       4.36760921E-08
   113.205002       4.73547139E-08
   112.919998       4.90712999E-08
   112.635002       4.89326624E-08
   112.349998       4.71175277E-08
   112.065002       4.38610144E-08
   111.779999       3.94373139E-08
   111.495003       3.41419586E-08
   111.209999       2.82746342E-08
   110.925003       2.21236132E-08
   110.639999       1.59525602E-08
   110.355003       9.99030991E-09
   110.070000       4.42391723E-09
   109.785004      -6.04930828E-10
   109.500000      -5.00031705E-09
   109.214996      -8.70964989E-09
   108.930000      -1.17188863E-08
   108.644997      -1.40460781E-08
   108.360001      -1.57338942E-08
   108.074997      -1.68418310E-08
   107.790001      -1.74387047E-08
   107.504997      -1.75959833E-08
   107.220001      -1.73823409E-08
   106.934998      -1.68596959E-08
   106.650002      -1.60808540E-08
   106.364998      -1.50886965E-08
   106.080002      -1.39167202E-08
   105.794998      -1.25907125E-08
   105.510002      -1.11311333E-08
   105.224998      -9.55588142E-09
   104.940002      -7.88303911E-09
   104.654999      -6.13327122E-09
   104.370003      -4.33160530E-09
   104.084999      -2.50839283E-09
   103.800003      -6.99380054E-10
   103.514999       1.05511899E-09
   103.230003       2.71183498E-09
   102.945000       4.22676472E-09
   102.660004       5.55778001E-09
   102.375000       6.66736177E-09
   102.089996       7.52519558E-09
   101.805000       8.11037371E-09
   101.519997       8.41302850E-09
   101.235001       8.43521697E-09
   100.949997       8.19100343E-09
   100.665001       7.70571607E-09
   100.379997       7.01444725E-09
   100.095001       6.15989704E-09
   99.8099976       5.18976062E-09
   99.5250015       4.15383550E-09
   99.2399979       3.10108561E-09
   98.9550018       2.07687068E-09
   98.6699982       1.12054799E-09
   98.3850021       2.63602085E-10
   98.0999985      -4.71578943E-10
   97.8150024      -1.07221920E-09
   97.5299988      -1.53496504E-09
   97.2450027      -1.86504412E-09
   96.9599991      -2.07486828E-09
   96.6750031      -2.18223017E-09
   96.3899994      -2.20826202E-09
   96.1050034      -2.17532659E-09
   95.8199997      -2.10502726E-09
   95.5350037      -2.01648254E-09
   95.2500000      -1.92499860E-09
   94.9649963      -1.84121562E-09
   94.6800003      -1.77077220E-09
   94.3949966      -1.71447012E-09
   94.1100006      -1.66889436E-09
   93.8249969      -1.62738800E-09
   93.5400009      -1.58127178E-09
   93.2549973      -1.52117174E-09
   92.9700012      -1.43832013E-09
   92.6849976      -1.32570477E-09
   92.4000015      -1.17896992E-09
   92.1149979      -9.96988159E-10
   91.8300018      -7.82075016E-10
   91.5449982      -5.39836342E-10
   91.2600021      -2.78688073E-10
   90.9749985      -9.10670064E-12
   90.6900024       2.57301513E-10
   90.4049988       5.08814046E-10
   90.1200027       7.34589944E-10
   89.8349991       9.25551913E-10
   89.5500031       1.07507614E-09
   89.2649994       1.17943155E-09
   88.9800034       1.23793897E-09
   88.6949997       1.25284572E-09
   88.4100037       1.22894306E-09
   88.1250000       1.17297227E-09
   87.8399963       1.09288678E-09
   87.5550003       9.97046556E-10
   87.2699966       8.93423169E-10
   86.9850006       7.88895504E-10
   86.6999969       6.88692492E-10
   86.4150009       5.96037164E-10
   86.1299973       5.12015097E-10
   85.8450012       4.35673525E-10
   85.5599976       3.64333091E-10
   85.2750015       2.94078845E-10
   84.9899979       2.20375482E-10
   84.7050018       1.38745709E-10
   84.4199982       4.54413174E-11
   84.1350021      -6.19568008E-11
   83.8499985      -1.84071730E-10
   83.5650024      -3.19441307E-10
   83.2799988      -4.64437017E-10
   82.9950027      -6.13401052E-10
   82.7099991      -7.58991925E-10
   82.4250031      -8.92710073E-10
   82.1399994      -1.00555897E-09
   81.8550034      -1.08878551E-09
   81.5699997      -1.13463450E-09
   81.2850037      -1.13705467E-09
   81.0000000      -1.09229203E-09
   80.7149963      -9.99321403E-10
   80.4300003      -8.60076177E-10
   80.1449966      -6.79456991E-10
   79.8600006      -4.65114336E-10
   79.5749969      -2.27022026E-10
   79.2900009       2.31268841E-11
   79.0049973       2.72656425E-10
   78.7200012       5.08718512E-10
   78.4349976       7.19119431E-10
   78.1500015       8.93098429E-10
   77.8649979       1.02200370E-09
   77.5800018       1.09981879E-09
   77.2949982       1.12350362E-09
   77.0100021       1.09313125E-09
   76.7249985       1.01181719E-09
   76.4400024       8.85450546E-10
   76.1549988       7.22253812E-10
   75.8700027       5.32206945E-10
   75.5849991       3.26380922E-10
   75.3000031       1.16229339E-10
   75.0149994      -8.71113043E-11
   74.7300034      -2.73466944E-10
   74.4449997      -4.34176750E-10
   74.1600037      -5.62517033E-10
   73.8750000      -6.53979426E-10
   73.5899963      -7.06392667E-10
   73.3050003      -7.19892146E-10
   73.0199966      -6.96748104E-10
   72.7350006      -6.41075470E-10
   72.4499969      -5.58452451E-10
   72.1650009      -4.55479626E-10
   71.8799973      -3.39313216E-10
   71.5950012      -2.17203755E-10
   71.3099976      -9.60702629E-11
   71.0250015       1.78672754E-11
   70.7399979       1.19378687E-10
   70.4550018       2.04427197E-10
   70.1699982       2.70280909E-10
   69.8850021       3.15534987E-10
   69.5999985       3.40052431E-10
   69.3150024       3.44835577E-10
   69.0299988       3.31844247E-10
   68.7450027       3.03777475E-10
   68.4599991       2.63836952E-10
   68.1750031       2.15488433E-10
   67.8899994       1.62236322E-10
   67.6050034       1.07423646E-10
   67.3199997       5.40659462E-11
   67.0350037       4.72530955E-12
   66.7500000      -3.85733771E-11
   66.4649963      -7.43843945E-11
   66.1800003      -1.01844429E-10
   65.8949966      -1.20642427E-10
   65.6100006      -1.30962158E-10
   65.3249969      -1.33405134E-10
   65.0400009      -1.28901015E-10
   64.7549973      -1.18612606E-10
   64.4700012      -1.03841727E-10
   64.1849976      -8.59413513E-11
   63.9000015      -6.62376612E-11
   63.6150017      -4.59651102E-11
   63.3300018      -2.62159947E-11
   63.0449982      -7.90476885E-12
   62.7599983       8.25306403E-12
   62.4749985       2.17488614E-11
   62.1899986       3.22771358E-11
   61.9049988       3.97222602E-11
   61.6199989       4.41377282E-11
   61.3349991       4.57201360E-11
   61.0499992       4.47799089E-11
   60.7649994       4.17106662E-11
   60.4799995       3.69588110E-11
   60.1949997       3.09947658E-11
   59.9099998       2.42868347E-11
   59.6250000       1.72785883E-11
   59.3400002       1.03702845E-11
   59.0550003       3.90460667E-12
   58.7700005      -1.84312591E-12
   58.4850006      -6.67037432E-12
   58.2000008      -1.04486446E-11
   57.9150009      -1.31209861E-11
   57.6300011      -1.46962147E-11
   57.3450012      -1.52404617E-11
   57.0600014      -1.48667450E-11
   56.7750015      -1.37232413E-11
   56.4900017      -1.19810082E-11
   56.2050018      -9.82185080E-12
   55.9199982      -7.42694621E-12
   55.6349983      -4.96676702E-12
   55.3499985      -2.59273809E-12
   55.0649986      -4.30899294E-13
   54.7799988       1.42225457E-12
   54.4949989       2.90173267E-12
   54.2099991       3.97392449E-12
   53.9249992       4.63459479E-12
   53.6399994       4.90532918E-12
   53.3549995       4.82880055E-12
   53.0699997       4.46327827E-12
   52.7849998       3.87682898E-12
   52.5000000       3.14160221E-12
   52.2150002       2.32858004E-12
   51.9300003       1.50308628E-12
   51.6450005       7.21260616E-13
   51.3600006       2.76294338E-14
   51.0750008      -5.46202352E-13
   50.7900009      -9.81787026E-13
   50.5050011      -1.27312169E-12
   50.2200012      -1.42515893E-12
   49.9350014      -1.45175332E-12
   49.6500015      -1.37326890E-12
   49.3650017      -1.21406899E-12
   49.0800018      -1.00009486E-12
   48.7949982      -7.56702101E-13
   48.5099983      -5.06883327E-13
   48.2249985      -2.69956881E-13
   47.9399986      -6.07511207E-14
   47.6549988       1.10727616E-13
   47.3699989       2.39195680E-13
   47.0849991       3.23639146E-13
   46.7999992       3.66603015E-13
   46.5149994       3.73324229E-13
   46.2299995       3.50805295E-13
   45.9449997       3.06916168E-13
   45.6599998       2.49592990E-13
   45.3750000       1.86183141E-13
   45.0900002       1.22965548E-13
   44.8050003       6.48543177E-14
   44.5200005       1.52772539E-14
   44.2350006      -2.37939941E-14
   43.9500008      -5.16941396E-14
   43.6650009      -6.88322148E-14
   43.3800011      -7.64150570E-14
   43.0950012      -7.61609200E-14
   42.8100014      -7.00316338E-14
   42.5250015      -6.00041325E-14
   42.2400017      -4.78938686E-14
   41.9550018      -3.52345174E-14
   41.6699982      -2.32125229E-14
   41.3849983      -1.26493647E-14
   41.0999985      -4.02197120E-15
   40.8149986       2.49004584E-15
   40.5299988       6.94145152E-15
   40.2449989       9.55272492E-15
   39.9599991       1.06438728E-14
   39.6749992       1.05765684E-14
   39.3899994       9.70825203E-15
   39.1049995       8.35960956E-15
   38.8199997       6.79509143E-15
   38.5349998       5.21485702E-15
   38.2500000       3.75568861E-15
   37.9650002       2.49811361E-15
   37.6800003       1.47708443E-15
   37.3950005       6.93921789E-16
   37.1100006       1.27809304E-16
   36.8250008      -2.54290170E-16
   36.5400009      -4.89876635E-16
   36.2550011      -6.15441805E-16
   35.9700012      -6.63106784E-16
   35.6850014      -6.59006880E-16
   35.4000015      -6.22974204E-16
   35.1150017      -5.69080409E-16
   34.8300018      -5.06650269E-16
   34.5449982      -4.41439453E-16
   34.2599983      -3.76759328E-16
   33.9749985      -3.14418868E-16
   33.6899986      -2.55422600E-16
   33.4049988      -2.00422395E-16
   33.1199989      -1.49956662E-16
   32.8349991      -1.04532713E-16
   32.5499992      -6.46111637E-17
   32.2649994      -3.05473797E-17
   31.9799995      -2.52967858E-18
   31.6949997       1.94597118E-17
   31.4099998       3.56526722E-17
   31.1250000       4.64741501E-17
   30.8400002       5.25020071E-17
   30.5550003       5.44196202E-17
   30.2700005       5.29695660E-17
   29.9850006       4.89135289E-17
   29.7000008       4.29985158E-17
   29.4150009       3.59283318E-17
   29.1299992       2.83388140E-17
   28.8449993       2.07769969E-17
   28.5599995       1.36858720E-17
   28.2749996       7.39635373E-18
   27.9899998       2.12734372E-18
   27.7049999      -2.00689319E-18
   27.4200001      -4.98399894E-18
   27.1350002      -6.85790382E-18
   26.8500004      -7.74244197E-18
   26.5650005      -7.79519706E-18
   26.2800007      -7.20171152E-18
   25.9950008      -6.15977621E-18
   25.7099991      -4.86377733E-18
   25.4249992      -3.48986839E-18
   25.1399994      -2.18342719E-18
   24.8549995      -1.05047750E-18
   24.5699997      -1.54344264E-19
   24.2849998       4.82166991E-19
   24.0000000       8.69913073E-19
   23.7150002       1.04360353E-18
   23.4300003       1.05116034E-18
   23.1450005       9.44155118E-19
   22.8600006       7.70583467E-19
   22.5750008       5.70433987E-19
   22.2900009       3.73812225E-19
   22.0049992       2.00951368E-19
   21.7199993       6.33361920E-20
   21.4349995      -3.46969761E-20
   21.1499996      -9.42790412E-20
   20.8649998      -1.20415577E-19
   20.5799999      -1.20513171E-19
   20.2950001      -1.03022121E-19
   20.0100002      -7.62244867E-20
   19.7250004      -4.72435192E-20
   19.4400005      -2.13679315E-20
   19.1550007      -1.75779010E-21
   18.8700008       1.04658712E-20
   18.5849991       1.58194043E-20
   18.2999992       1.58716799E-20
   18.0149994       1.26254241E-20
   17.7299995       7.99466750E-21
   17.4449997       3.45966070E-21
   17.1599998      -7.87341875E-23
   16.8750000      -2.27435127E-21
   16.5900002      -3.20077134E-21
   16.3050003      -3.17353577E-21
   16.0200005      -2.58515954E-21
   15.7349997      -1.78661702E-21
   15.4499998      -1.02573536E-21
   15.1650000      -4.35014708E-22
   14.8800001      -5.18421432E-23
   14.5950003       1.47462539E-22
   14.3100004       2.14258863E-22
   14.0249996       2.02943619E-22
   13.7399998       1.57206738E-22
   13.4549999       1.05460650E-22
   13.1700001       6.21447834E-23
   12.8850002       3.17183520E-23
   12.6000004       1.30440983E-23
   12.3149996       2.87724433E-24
   12.0299997      -2.00495192E-24
   11.7449999      -3.92959385E-24
   11.4600000      -4.29118008E-24
   11.1750002      -3.86266137E-24
   10.8900003      -3.09705115E-24
   10.6049995      -2.28133210E-24
   10.3199997      -1.57744975E-24
   10.0349998      -1.03897399E-24
   9.75000000      -6.50191090E-25
   9.46500015      -3.75720472E-25
   9.18000031      -1.90280424E-25
   8.89500046      -7.94462003E-26
   8.60999966      -2.75676164E-26
   8.32499981      -1.23955101E-26
   8.03999996      -1.11930626E-26
   7.75500011      -9.65883835E-27
   7.46999979      -4.52065139E-27
   7.18499994       1.07388380E-27
   6.90000010       3.86425017E-27
   6.61499977       3.50100822E-27
   6.32999992       1.73532393E-27
   6.04500008       3.02770872E-28
   5.76000023      -2.09936836E-28
   5.47499990      -1.25785265E-28
   5.19000006       6.14278606E-29
   4.90500021       1.21506944E-28
   4.61999989       7.69790227E-29
   4.33500004       1.91295535E-29
   4.05000019      -7.20412979E-30
   3.76500010      -7.85676877E-30
   3.48000002      -1.80816102E-30
   3.19499993       1.31655038E-30
   2.91000009       1.33461181E-30
   2.62500000       5.49105009E-31
   2.33999991       9.91480349E-32
   2.05500007      -6.12406035E-33
   1.76999998      -4.63352460E-34
   1.48500001       7.79847491E-33
   1.20000005       6.36280545E-33
  0.915000021       2.67777889E-33
  0.629999995       3.21742079E-34
  0.344999999      -4.31919466E-34
   5.99999987E-02  -3.39851764E-34
 -0.224999994      -1.09576920E-34
 -0.509999990      -4.94017536E-36
 -0.795000017       8.43289201E-36
  -1.08000004       1.47218991E-36
  -1.36500001       3.65891809E-37
  -1.64999998      -1.35727572E-37
  -1.93499994      -6.56548632E-38
  -2.22000003      -1.87493735E-42
  -2.50500011      -3.11088259E-43
  -2.78999996       0.00000000    
  -3.07500005       0.00000000    
  -3.35999990       0.00000000    
  -3.64499998       0.00000000    
  -3.93000007       0.00000000    
  -4.21500015       0.00000000    
  -4.50000000       0.00000000    
