   166.214996      -4.73617820E-06
   165.929993      -5.15275406E-06
   165.645004      -5.53037580E-06
   165.360001      -5.86551505E-06
   165.074997      -6.15519230E-06
   164.789993      -6.39701648E-06
   164.505005      -6.58921681E-06
   164.220001      -6.73068553E-06
   163.934998      -6.82099699E-06
   163.649994      -6.86040175E-06
   163.365005      -6.84976794E-06
   163.080002      -6.79056802E-06
   162.794998      -6.68485200E-06
   162.509995      -6.53518828E-06
   162.225006      -6.34461276E-06
   161.940002      -6.11657651E-06
   161.654999      -5.85492307E-06
   161.369995      -5.56383429E-06
   161.085007      -5.24776942E-06
   160.800003      -4.91142782E-06
   160.514999      -4.55971167E-06
   160.229996      -4.19766866E-06
   159.945007      -3.83042561E-06
   159.660004      -3.46312072E-06
   159.375000      -3.10085056E-06
   159.089996      -2.74860281E-06
   158.804993      -2.41116436E-06
   158.520004      -2.09303403E-06
   158.235001      -1.79834683E-06
   157.949997      -1.53079986E-06
   157.664993      -1.29356351E-06
   157.380005      -1.08919221E-06
   157.095001      -9.19559398E-07
   156.809998      -7.85806833E-07
   156.524994      -6.88297121E-07
   156.240005      -6.26563747E-07
   155.955002      -5.99295845E-07
   155.669998      -6.04358661E-07
   155.384995      -6.38831864E-07
   155.100006      -6.99054510E-07
   154.815002      -7.80701441E-07
   154.529999      -8.78899357E-07
   154.244995      -9.88369607E-07
   153.960007      -1.10357814E-06
   153.675003      -1.21889570E-06
   153.389999      -1.32877767E-06
   153.104996      -1.42795693E-06
   152.820007      -1.51161635E-06
   152.535004      -1.57553211E-06
   152.250000      -1.61621108E-06
   151.964996      -1.63099844E-06
   151.679993      -1.61814796E-06
   151.395004      -1.57684076E-06
   151.110001      -1.50715846E-06
   150.824997      -1.41002306E-06
   150.539993      -1.28711429E-06
   150.255005      -1.14073327E-06
   149.970001      -9.73643751E-07
   149.684998      -7.88913269E-07
   149.399994      -5.89741262E-07
   149.115005      -3.79301724E-07
   148.830002      -1.60581322E-07
   148.544998       6.37488995E-08
   148.259995       2.91422111E-07
   147.975006       5.20646267E-07
   147.690002       7.50145148E-07
   147.404999       9.79158813E-07
   147.119995       1.20741231E-06
   146.835007       1.43504633E-06
   146.550003       1.66255563E-06
   146.264999       1.89070795E-06
   145.979996       2.12042733E-06
   145.695007       2.35269431E-06
   145.410004       2.58845944E-06
   145.125000       2.82857286E-06
   144.839996       3.07369828E-06
   144.554993       3.32426180E-06
   144.270004       3.58040074E-06
   143.985001       3.84196528E-06
   143.699997       4.10849998E-06
   143.414993       4.37923245E-06
   143.130005       4.65307130E-06
   142.845001       4.92863774E-06
   142.559998       5.20428421E-06
   142.274994       5.47809168E-06
   141.990005       5.74787964E-06
   141.705002       6.01124884E-06
   141.419998       6.26560359E-06
   141.134995       6.50816719E-06
   140.850006       6.73600880E-06
   140.565002       6.94611754E-06
   140.279999       7.13545705E-06
   139.994995       7.30102010E-06
   139.710007       7.43989676E-06
   139.425003       7.54937628E-06
   139.139999       7.62703621E-06
   138.854996       7.67080837E-06
   138.570007       7.67906022E-06
   138.285004       7.65065579E-06
   138.000000       7.58501756E-06
   137.714996       7.48215825E-06
   137.429993       7.34268224E-06
   137.145004       7.16777504E-06
   136.860001       6.95918834E-06
   136.574997       6.71918588E-06
   136.289993       6.45048021E-06
   136.005005       6.15616000E-06
   135.720001       5.83961446E-06
   135.434998       5.50444929E-06
   135.149994       5.15439569E-06
   134.865005       4.79323717E-06
   134.580002       4.42474402E-06
   134.294998       4.05259971E-06
   134.009995       3.68034898E-06
   133.725006       3.31135971E-06
   133.440002       2.94878873E-06
   133.154999       2.59555372E-06
   132.869995       2.25431450E-06
   132.585007       1.92746825E-06
   132.300003       1.61713524E-06
   132.014999       1.32515197E-06
   131.729996       1.05306685E-06
   131.445007       8.02136867E-07
   131.160004       5.73319937E-07
   130.875000       3.67269251E-07
   130.589996       1.84330659E-07
   130.304993       2.45431409E-08
   130.020004      -1.12358386E-07
   129.735001      -2.26934844E-07
   129.449997      -3.20027425E-07
   129.164993      -3.92733199E-07
   128.880005      -4.46375680E-07
   128.595001      -4.82468863E-07
   128.309998      -5.02675107E-07
   128.024994      -5.08759115E-07
   127.739998      -5.02541411E-07
   127.455002      -4.85852468E-07
   127.169998      -4.60489588E-07
   126.885002      -4.28178339E-07
   126.599998      -3.90541771E-07
   126.315002      -3.49076544E-07
   126.029999      -3.05137377E-07
   125.745003      -2.59928726E-07
   125.459999      -2.14504382E-07
   125.175003      -1.69772719E-07
   124.889999      -1.26506322E-07
   124.605003      -8.53538538E-08
   124.320000      -4.68531809E-08
   124.035004      -1.14437393E-08
   123.750000       2.05229771E-08
   123.464996       4.87753233E-08
   123.180000       7.31163183E-08
   122.894997       9.34212139E-08
   122.610001       1.09637199E-07
   122.324997       1.21783742E-07
   122.040001       1.29953591E-07
   121.754997       1.34312742E-07
   121.470001       1.35098574E-07
   121.184998       1.32615000E-07
   120.900002       1.27224908E-07
   120.614998       1.19339575E-07
   120.330002       1.09405910E-07
   120.044998       9.78910961E-08
   119.760002       8.52663433E-08
   119.474998       7.19910389E-08
   119.190002       5.84977329E-08
   118.904999       4.51789610E-08
   118.620003       3.23769882E-08
   118.334999       2.03768860E-08
   118.050003       9.40312983E-09
   117.764999      -3.80659171E-10
   117.480003      -8.86882212E-09
   117.195000      -1.60082720E-08
   116.910004      -2.17913012E-08
   116.625000      -2.62474806E-08
   116.339996      -2.94355704E-08
   116.055000      -3.14357038E-08
   115.769997      -3.23425269E-08
   115.485001      -3.22599973E-08
   115.199997      -3.12977235E-08
   114.915001      -2.95686444E-08
   114.629997      -2.71879923E-08
   114.345001      -2.42733584E-08
   114.059998      -2.09450679E-08
   113.775002      -1.73264230E-08
   113.489998      -1.35434357E-08
   113.205002      -9.72369296E-09
   112.919998      -5.99420158E-09
   112.635002      -2.47796184E-09
   112.349998       7.10331349E-10
   112.065002       3.46924578E-09
   111.779999       5.71568393E-09
   111.495003       7.38960093E-09
   111.209999       8.45786019E-09
   110.925003       8.91663454E-09
   110.639999       8.79204620E-09
   110.355003       8.13887091E-09
   110.070000       7.03724501E-09
   109.785004       5.58755664E-09
   109.500000       3.90398736E-09
   109.214996       2.10708984E-09
   108.930000       3.16038973E-10
   108.644997      -1.35882150E-09
   108.360001      -2.82253598E-09
   108.074997      -4.00073974E-09
   107.790001      -4.84312013E-09
   107.504997      -5.32498667E-09
   107.220001      -5.44690559E-09
   106.934998      -5.23251709E-09
   106.650002      -4.72488226E-09
   106.364998      -3.98168210E-09
   106.080002      -3.06982884E-09
   105.794998      -2.05990780E-09
   105.510002      -1.02087605E-09
   105.224998      -1.53839875E-11
   104.940002       9.03862318E-10
   104.654999       1.69659853E-09
   104.370003       2.33629049E-09
   104.084999       2.81021006E-09
   103.800003       3.11841819E-09
   103.514999       3.27183991E-09
   103.230003       3.28970629E-09
   102.945000       3.19670668E-09
   102.660004       3.02004755E-09
   102.375000       2.78668977E-09
   102.089996       2.52103183E-09
   101.805000       2.24317476E-09
   101.519997       1.96789052E-09
   101.235001       1.70425729E-09
   100.949997       1.45590584E-09
   100.665001       1.22185684E-09
   100.379997       9.97767868E-10
   100.095001       7.77370113E-10
   99.8099976       5.53929069E-10
   99.5250015       3.21629084E-10
   99.2399979       7.67219344E-11
   98.9550018      -1.81709828E-10
   98.6699982      -4.51402582E-10
   98.3850021      -7.26959493E-10
   98.0999985      -1.00027187E-09
   97.8150024      -1.26124322E-09
   97.5299988      -1.49874668E-09
   97.2450027      -1.70167813E-09
   96.9599991      -1.85997273E-09
   96.6750031      -1.96548822E-09
   96.3899994      -2.01269579E-09
   96.1050034      -1.99912265E-09
   95.8199997      -1.92550020E-09
   95.5350037      -1.79560844E-09
   95.2500000      -1.61588987E-09
   94.9649963      -1.39489365E-09
   94.6800003      -1.14260135E-09
   94.3949966      -8.69688266E-10
   94.1100006      -5.86824533E-10
   93.8249969      -3.04080011E-10
   93.5400009      -3.04625700E-11
   93.2549973       2.26386937E-10
   92.9700012       4.60352534E-10
   92.6849976       6.66840694E-10
   92.4000015       8.42651671E-10
   92.1149979       9.85784676E-10
   91.8300018       1.09522680E-09
   91.5449982       1.17074106E-09
   91.2600021       1.21268473E-09
   90.9749985       1.22189203E-09
   90.6900024       1.19963495E-09
   90.4049988       1.14764054E-09
   90.1200027       1.06813314E-09
   89.8349991       9.63898406E-10
   89.5500031       8.38333680E-10
   89.2649994       6.95468461E-10
   88.9800034       5.39922107E-10
   88.6949997       3.76789017E-10
   88.4100037       2.11471174E-10
   88.1250000       4.94597696E-11
   87.8399963      -1.03922204E-10
   87.5550003      -2.43791709E-10
   87.2699966      -3.65960123E-10
   86.9850006      -4.67146544E-10
   86.6999969      -5.45133938E-10
   86.4150009      -5.98855632E-10
   86.1299973      -6.28402885E-10
   85.8450012      -6.34950703E-10
   85.5599976      -6.20612395E-10
   85.2750015      -5.88246618E-10
   84.9899979      -5.41222456E-10
   84.7050018      -4.83168394E-10
   84.4199982      -4.17728019E-10
   84.1350021      -3.48342161E-10
   83.8499985      -2.78067375E-10
   83.5650024      -2.09447085E-10
   83.2799988      -1.44434936E-10
   82.9950027      -8.43752915E-11
   82.7099991      -3.00337429E-11
   82.4250031       1.83282868E-11
   82.1399994       6.08509562E-11
   81.8550034       9.79529097E-11
   81.5699997       1.30201738E-10
   81.2850037       1.58190488E-10
   81.0000000       1.82430390E-10
   80.7149963       2.03273620E-10
   80.4300003       2.20861968E-10
   80.1449966       2.35109404E-10
   79.8600006       2.45719778E-10
   79.5749969       2.52233068E-10
   79.2900009       2.54092275E-10
   79.0049973       2.50724608E-10
   78.7200012       2.41629855E-10
   78.4349976       2.26465277E-10
   78.1500015       2.05118061E-10
   77.8649979       1.77758211E-10
   77.5800018       1.44871157E-10
   77.2949982       1.07263497E-10
   77.0100021       6.60433791E-11
   76.7249985       2.25746644E-11
   76.4400024      -2.15874645E-11
   76.1549988      -6.47767881E-11
   75.8700027      -1.05306326E-10
   75.5849991      -1.41562248E-10
   75.3000031      -1.72093104E-10
   75.0149994      -1.95689021E-10
   74.7300034      -2.11447679E-10
   74.4449997      -2.18820670E-10
   74.1600037      -2.17640864E-10
   73.8750000      -2.08125975E-10
   73.5899963      -1.90862048E-10
   73.3050003      -1.66768543E-10
   73.0199966      -1.37046943E-10
   72.7350006      -1.03116522E-10
   72.4499969      -6.65409949E-11
   72.1650009      -2.89513882E-11
   71.8799973       8.03180699E-12
   71.5950012       4.28727297E-11
   71.3099976       7.41870870E-11
   71.0250015       1.00799674E-10
   70.7399979       1.21789759E-10
   70.4550018       1.36522418E-10
   70.1699982       1.44666334E-10
   69.8850021       1.46197179E-10
   69.5999985       1.41386916E-10
   69.3150024       1.30780081E-10
   69.0299988       1.15158758E-10
   68.7450027       9.54977625E-11
   68.4599991       7.29121902E-11
   68.1750031       4.85995064E-11
   67.8899994       2.37789545E-11
   67.6050034      -3.68010391E-13
   67.3199997      -2.27543227E-11
   67.0350037      -4.24377651E-11
   66.7500000      -5.86620752E-11
   66.4649963      -7.08868381E-11
   66.1800003      -7.88048099E-11
   65.8949966      -8.23458593E-11
   65.6100006      -8.16673187E-11
   65.3249969      -7.71323214E-11
   65.0400009      -6.92773339E-11
   64.7549973      -5.87716334E-11
   64.4700012      -4.63715906E-11
   64.1849976      -3.28727219E-11
   63.9000015      -1.90626230E-11
   63.6150017      -5.67772045E-12
   63.3300018       6.63367451E-12
   63.0449982       1.73403548E-11
   62.7599983       2.60477404E-11
   62.4749985       3.25076771E-11
   62.1899986       3.66185554E-11
   61.9049988       3.84168079E-11
   61.6199989       3.80609017E-11
   61.3349991       3.58097649E-11
   61.0499992       3.19973562E-11
   60.7649994       2.70054968E-11
   60.4799995       2.12369063E-11
   60.1949997       1.50898304E-11
   59.9099998       8.93587201E-12
   59.6250000       3.10200216E-12
   59.3400002      -2.14265259E-12
   59.0550003      -6.59502878E-12
   58.7700005      -1.01213656E-11
   58.4850006      -1.26559440E-11
   58.2000008      -1.41958936E-11
   57.9150009      -1.47929880E-11
   57.6300011      -1.45433231E-11
   57.3450012      -1.35758340E-11
   57.0600014      -1.20405144E-11
   56.7750015      -1.00971393E-11
   56.4900017      -7.90506896E-12
   56.2050018      -5.61460036E-12
   55.9199982      -3.36011731E-12
   55.6349983      -1.25511309E-12
   55.3499985       6.10898430E-13
   55.0649986       2.17374187E-12
   54.7799988       3.39438655E-12
   54.4949989       4.25746721E-12
   54.2099991       4.76878346E-12
   53.9249992       4.95202880E-12
   53.6399994       4.84504017E-12
   53.3549995       4.49582949E-12
   53.0699997       3.95860384E-12
   52.7849998       3.29000108E-12
   52.5000000       2.54570085E-12
   52.2150002       1.77754025E-12
   51.9300003       1.03122122E-12
   51.6450005       3.44647244E-13
   51.3600006      -2.53082874E-13
   51.0750008      -7.42066835E-13
   50.7900009      -1.11142725E-12
   50.5050011      -1.35866340E-12
   50.2200012      -1.48860958E-12
   49.9350014      -1.51212029E-12
   49.6500015      -1.44459108E-12
   49.3650017      -1.30441350E-12
   49.0800018      -1.11146899E-12
   48.7949982      -8.85739182E-13
   48.5099983      -6.46099493E-13
   48.2249985      -4.09342861E-13
   47.9399986      -1.89459180E-13
   47.6549988       2.81765510E-15
   47.3699989       1.60199626E-13
   47.0849991       2.78793861E-13
   46.7999992       3.57842282E-13
   46.5149994       3.99292144E-13
   46.2299995       4.07245011E-13
   45.9449997       3.87338463E-13
   45.6599998       3.46110293E-13
   45.3750000       2.90393415E-13
   45.0900002       2.26782338E-13
   44.8050003       1.61201090E-13
   44.5200005       9.85909691E-14
   44.2350006       4.27243351E-14
   43.9500008      -3.85992618E-15
   43.6650009      -3.98147024E-14
   43.3800011      -6.48574347E-14
   43.0950012      -7.95822487E-14
   42.8100014      -8.52372982E-14
   42.5250015      -8.34921596E-14
   42.2400017      -7.62163702E-14
   41.9550018      -6.52854710E-14
   41.6699982      -5.24261319E-14
   41.3849983      -3.91062576E-14
   41.0999985      -2.64710129E-14
   40.8149986      -1.53212844E-14
   40.5299988      -6.12773407E-15
   40.2449989       9.28185903E-16
   39.9599991       5.89617517E-15
   39.6749992       8.99140212E-15
   39.3899994       1.05293895E-14
   39.1049995       1.08679833E-14
   38.8199997       1.03606055E-14
   38.5349998       9.32289693E-15
   38.2500000       8.01286900E-15
   37.9650002       6.62315983E-15
   37.6800003       5.28300717E-15
   37.3950005       4.06694272E-15
   37.1100006       3.00724394E-15
   36.8250008       2.10743513E-15
   36.5400009       1.35475095E-15
   36.2550011       7.30148118E-16
   35.9700012       2.15179615E-16
   35.6850014      -2.04316245E-16
   35.4000015      -5.37244411E-16
   35.1150017      -7.88237214E-16
   34.8300018      -9.59721787E-16
   34.5449982      -1.05423986E-15
   34.2599983      -1.07637686E-15
   33.9749985      -1.03389434E-15
   33.6899986      -9.37932500E-16
   33.4049988      -8.02371970E-16
   33.1199989      -6.42595722E-16
   32.8349991      -4.73969091E-16
   32.5499992      -3.10360866E-16
   32.2649994      -1.62960629E-16
   31.9799995      -3.95527626E-17
   31.6949997       5.56991727E-17
   31.4099998       1.22001252E-16
   31.1250000       1.61322785E-16
   30.8400002       1.77582112E-16
   30.5550003       1.75777296E-16
   30.2700005       1.61191217E-16
   29.9850006       1.38761229E-16
   29.7000008       1.12657950E-16
   29.4150009       8.60777645E-17
   29.1299992       6.12182739E-17
   28.8449993       3.93870916E-17
   28.5599995       2.11870948E-17
   28.2749996       6.72517525E-18
   27.9899998      -4.19645723E-18
   27.7049999      -1.19312639E-17
   27.4200001      -1.68905533E-17
   27.1350002      -1.94921770E-17
   26.8500004      -2.01430936E-17
   26.5650005      -1.92400060E-17
   26.2800007      -1.71739073E-17
   25.9950008      -1.43292828E-17
   25.7099991      -1.10745620E-17
   25.4249992      -7.74530236E-18
   25.1399994      -4.62478293E-18
   24.8549995      -1.92738666E-18
   24.5699997       2.10927101E-19
   24.2849998       1.73299818E-18
   24.0000000       2.65205871E-18
   23.7150002       3.03666523E-18
   23.4300003       2.99207709E-18
   23.1450005       2.64120631E-18
   22.8600006       2.10764131E-18
   22.5750008       1.50234487E-18
   22.2900009       9.14730960E-19
   22.0049992       4.08112199E-19
   21.7199993       1.90307182E-20
   21.4349995      -2.40281647E-19
   21.1499996      -3.77209507E-19
   20.8649998      -4.12783521E-19
   20.5799999      -3.75368746E-19
   20.2950001      -2.94864427E-19
   20.0100002      -1.98080663E-19
   19.7250004      -1.05703717E-19
   19.4400005      -3.09598743E-20
   19.1550007       2.01978862E-20
   18.8700008       4.77767470E-20
   18.5849991       5.58131653E-20
   18.2999992       5.03280789E-20
   18.0149994       3.75706274E-20
   17.7299995       2.27919230E-20
   17.4449997       9.61946752E-21
   17.1599998      -3.86549448E-23
   16.8750000      -5.71709031E-21
   16.5900002      -7.92872408E-21
   16.3050003      -7.67529016E-21
   16.0200005      -6.04521323E-21
   15.7349997      -3.95185861E-21
   15.4499998      -2.01468381E-21
   15.1650000      -5.52769250E-22
   14.8800001       3.53511871E-22
   14.5950003       7.74912077E-22
   14.3100004       8.50685487E-22
   14.0249996       7.27576737E-22
   13.7399998       5.24779102E-22
   13.4549999       3.21161531E-22
   13.1700001       1.57471026E-22
   12.8850002       4.60316463E-23
   12.6000004      -1.78491991E-23
   12.3149996      -4.62516627E-23
   12.0299997      -5.22007468E-23
   11.7449999      -4.63567232E-23
   11.4600000      -3.60159337E-23
   11.1750002      -2.54195501E-23
   10.8900003      -1.65622814E-23
   10.6049995      -1.00240705E-23
   10.3199997      -5.62973583E-24
   10.0349998      -2.90136553E-24
   9.75000000      -1.32778750E-24
   9.46500015      -4.90641457E-25
   9.18000031      -9.34067826E-26
   8.89500046       5.83911884E-26
   8.60999966       8.77021658E-26
   8.32499981       6.87658618E-26
   8.03999996       4.11677633E-26
   7.75500011       2.05718731E-26
   7.46999979       9.01424115E-27
   7.18499994       3.52200356E-27
   6.90000010       1.09560704E-27
   6.61499977       9.96744158E-29
   6.32999992      -1.80645705E-28
   6.04500008      -1.43915548E-28
   5.76000023      -5.83525417E-29
   5.47499990      -3.48224053E-29
   5.19000006      -5.33358131E-29
   4.90500021      -6.14924454E-29
   4.61999989      -4.30752167E-29
   4.33500004      -1.58503779E-29
   4.05000019       1.13788991E-30
   3.76500010       4.70175133E-30
   3.48000002       1.99527358E-30
   3.19499993      -4.82059466E-31
   2.91000009      -9.89585970E-31
   2.62500000      -5.16252669E-31
   2.33999991      -8.79091217E-32
   2.05500007       4.60164220E-32
   1.76999998       3.04636620E-32
   1.48500001       4.52549575E-34
   1.20000005      -8.28748350E-33
  0.915000021      -5.20943097E-33
  0.629999995      -1.28899384E-33
  0.344999999       2.95630309E-34
   5.99999987E-02   3.75349604E-34
 -0.224999994       1.39125508E-34
 -0.509999990       1.68255127E-35
 -0.795000017      -6.00163837E-36
  -1.08000004      -5.75019134E-36
  -1.36500001      -1.52685279E-37
  -1.64999998       4.41763220E-37
  -1.93499994       1.39815956E-37
  -2.22000003       1.18970240E-42
  -2.50500011      -3.22298647E-44
  -2.78999996       0.00000000    
  -3.07500005       0.00000000    
  -3.35999990       0.00000000    
  -3.64499998       0.00000000    
  -3.93000007       0.00000000    
  -4.21500015       0.00000000    
  -4.50000000       0.00000000    
