   0.00000000       0.00000000    
  0.115000002       0.00000000    
  0.230000004       0.00000000    
  0.344999999       0.00000000    
  0.460000008       0.00000000    
  0.574999988       0.00000000    
  0.689999998       7.37433115E-37
  0.805000007       2.46533914E-36
  0.920000017      -3.97592654E-35
   1.03499997      -4.88319317E-34
   1.14999998      -3.03504744E-33
   1.26499999      -1.34907240E-32
   1.38000000      -4.78776175E-32
   1.49500000      -1.43262610E-31
   1.61000001      -3.73292455E-31
   1.72500002      -8.64767277E-31
   1.84000003      -1.80607184E-30
   1.95500004      -3.43314353E-30
   2.06999993      -5.97973450E-30
   2.18499994      -9.59617089E-30
   2.29999995      -1.42884186E-29
   2.41499996      -2.00212214E-29
   2.52999997      -2.72715532E-29
   2.64499998      -3.84981449E-29
   2.75999999      -6.11591392E-29
   2.87500000      -1.12959378E-28
   2.99000001      -2.29781739E-28
   3.10500002      -4.76045682E-28
   3.22000003      -9.55846157E-28
   3.33500004      -1.82104418E-27
   3.45000005      -3.26967553E-27
   3.56500006      -5.52512285E-27
   3.68000007      -8.78456476E-27
   3.79500008      -1.31258597E-26
   3.91000009      -1.83673597E-26
   4.02500010      -2.38870010E-26
   4.13999987      -2.84267969E-26
   4.25500011      -2.99355149E-26
   4.36999989      -2.55329176E-26
   4.48500013      -1.17054031E-26
   4.59999990       1.51449091E-26
   4.71500015       5.76926151E-26
   4.82999992       1.16177086E-25
   4.94500017       1.86452735E-25
   5.05999994       2.57833887E-25
   5.17500019       3.11173185E-25
   5.28999996       3.17827079E-25
   5.40500021       2.40332465E-25
   5.51999998       3.56806872E-26
   5.63500023      -3.38044943E-25
   5.75000000      -9.11263028E-25
   5.86499977      -1.68894449E-24
   5.98000002      -2.63422547E-24
   6.09499979      -3.65171917E-24
   6.21000004      -4.57371258E-24
   6.32499981      -5.15324294E-24
   6.44000006      -5.06842777E-24
   6.55499983      -3.94209927E-24
   6.67000008      -1.37964663E-24
   6.78499985       2.97400384E-24
   6.90000010       9.36007288E-24
   7.01499987       1.78191293E-23
   7.13000011       2.80997713E-23
   7.24499989       3.95733304E-23
   7.36000013       5.11667142E-23
   7.47499990       6.13262045E-23
   7.59000015       6.80242900E-23
   7.70499992       6.88204778E-23
   7.82000017       6.09855933E-23
   7.93499994       4.16978306E-23
   8.05000019       8.31857059E-24
   8.16499996      -4.12441883E-23
   8.27999973      -1.08077642E-22
   8.39500046      -1.91707753E-22
   8.51000023      -2.89450509E-22
   8.62500000      -3.95694523E-22
   8.73999977      -5.01168104E-22
   8.85499954      -5.92284543E-22
   8.97000027      -6.50710434E-22
   9.08500004      -6.53354342E-22
   9.19999981      -5.73019272E-22
   9.31499958      -3.79984403E-22
   9.43000031      -4.47612773E-23
   9.54500008       4.57803776E-22
   9.65999985       1.14306152E-21
   9.77499962       2.00992913E-21
   9.89000034       3.03358675E-21
   10.0050001       4.15832903E-21
   10.1199999       5.29171995E-21
   10.2349997       6.30146998E-21
   10.3500004       7.01657893E-21
   10.4650002       7.23422922E-21
   10.5799999       6.73356321E-21
   10.6949997       5.29687286E-21
   10.8100004       2.73780102E-21
   10.9250002      -1.06496606E-21
   11.0400000      -6.13130585E-21
   11.1549997      -1.23445268E-20
   11.2700005      -1.94224205E-20
   11.3850002      -2.68999022E-20
   11.5000000      -3.41284769E-20
   11.6149998      -4.02968176E-20
   11.7299995      -4.44750200E-20
   11.8450003      -4.56825131E-20
   11.9600000      -4.29768085E-20
   12.0749998      -3.55568756E-20
   12.1899996      -2.28723000E-20
   12.3050003      -4.72710092E-21
   12.4200001       1.86337006E-20
   12.5349998       4.64660793E-20
   12.6499996       7.75066231E-20
   12.7650003       1.09994885E-19
   12.8800001       1.41738755E-19
   12.9949999       1.70217756E-19
   13.1099997       1.92713928E-19
   13.2250004       2.06457121E-19
   13.3400002       2.08769362E-19
   13.4549999       1.97195826E-19
   13.5699997       1.69613488E-19
   13.6850004       1.24317375E-19
   13.8000002       6.00925066E-20
   13.9150000      -2.37099076E-20
   14.0299997      -1.27066885E-19
   14.1450005      -2.49120021E-19
   14.2600002      -3.87927700E-19
   14.3750000      -5.40118438E-19
   14.4899998      -7.00448943E-19
   14.6049995      -8.61298194E-19
   14.7200003      -1.01215743E-18
   14.8350000      -1.13921247E-18
   14.9499998      -1.22513814E-18
   15.0649996      -1.24924652E-18
   15.1800003      -1.18813297E-18
   15.2950001      -1.01693760E-18
   15.4099998      -7.11310031E-19
   15.5249996      -2.50082523E-19
   15.6400003       3.81425000E-19
   15.7550001       1.18765248E-18
   15.8699999       2.15889032E-18
   15.9849997       3.26761199E-18
   16.1000004       4.46551799E-18
   16.2150002       5.68180230E-18
   16.3299999       6.82314114E-18
   16.4449997       7.77583607E-18
   16.5599995       8.41039445E-18
   16.6749992       8.58866428E-18
   16.7900009       8.17337660E-18
   16.9050007       7.03969827E-18
   17.0200005       5.08814635E-18
   17.1350002       2.25795161E-18
   17.2500000      -1.46018389E-18
   17.3649998      -6.01310261E-18
   17.4799995      -1.12771328E-17
   17.5949993      -1.70539661E-17
   17.7099991      -2.30712650E-17
   17.8250008      -2.89885016E-17
   17.9400005      -3.44080533E-17
   18.0550003      -3.88912895E-17
   18.1700001      -4.19789429E-17
   18.2849998      -4.32147442E-17
   18.3999996      -4.21711069E-17
   18.5149994      -3.84756014E-17
   18.6299992      -3.18369145E-17
   18.7450008      -2.20693061E-17
   18.8600006      -9.11473212E-18
   18.9750004       6.93782271E-18
   19.0900002       2.58360650E-17
   19.2049999       4.71511677E-17
   19.3199997       7.02676695E-17
   19.4349995       9.43767749E-17
   19.5499992       1.18473545E-16
   19.6650009       1.41359542E-16
   19.7800007       1.61652598E-16
   19.8950005       1.77806681E-16
   20.0100002       1.88145327E-16
   20.1250000       1.90912213E-16
   20.2399998       1.84342520E-16
   20.3549995       1.66758447E-16
   20.4699993       1.36689862E-16
   20.5849991       9.30194907E-17
   20.7000008       3.51492832E-17
   20.8150005      -3.68200855E-17
   20.9300003      -1.21906901E-16
   21.0450001      -2.18079114E-16
   21.1599998      -3.22116757E-16
   21.2749996      -4.29527231E-16
   21.3899994      -5.34535388E-16
   21.5049992      -6.30171813E-16
   21.6200008      -7.08476198E-16
   21.7350006      -7.60830192E-16
   21.8500004      -7.78423755E-16
   21.9650002      -7.52850083E-16
   22.0799999      -6.76810506E-16
   22.1949997      -5.44897089E-16
   22.3099995      -3.54407532E-16
   22.4249992      -1.06132911E-16
   22.5400009       1.94950602E-16
   22.6550007       5.39163152E-16
   22.7700005       9.11852249E-16
   22.8850002       1.29344822E-15
   23.0000000       1.65990484E-15
   23.1149998       1.98356757E-15
   23.2299995       2.23448541E-15
   23.3449993       2.38215374E-15
   23.4599991       2.39762819E-15
   23.5750008       2.25592424E-15
   23.6900005       1.93856831E-15
   23.8050003       1.43613473E-15
   23.9200001       7.50571723E-16
   24.0349998      -1.02892566E-16
   24.1499996      -1.09447499E-15
   24.2649994      -2.17941429E-15
   24.3799992      -3.29854471E-15
   24.4950008      -4.38001542E-15
   24.6100006      -5.34220334E-15
   24.7250004      -6.09780374E-15
   24.8400002      -6.55898650E-15
   24.9549999      -6.64341662E-15
   25.0699997      -6.28084587E-15
   25.1849995      -5.41988558E-15
   25.2999992      -4.03452974E-15
   25.4150009      -2.12991432E-15
   25.5300007       2.53170339E-16
   25.6450005       3.03552277E-15
   25.7600002       6.09894003E-15
   25.8750000       9.28814402E-15
   25.9899998       1.24154354E-14
   26.1049995       1.52681128E-14
   26.2199993       1.76185428E-14
   26.3349991       1.92365536E-14
   26.4500008       1.99036581E-14
   26.5650005       1.94283862E-14
   26.6800003       1.76619278E-14
   26.7950001       1.45131083E-14
   26.9099998       9.96170801E-15
   27.0249996       4.06907555E-15
   27.1399994      -3.01489943E-15
   27.2549992      -1.10492788E-14
   27.3700008      -1.97047104E-14
   27.4850006      -2.85715936E-14
   27.6000004      -3.71738332E-14
   27.7150002      -4.49880679E-14
   27.8299999      -5.14677548E-14
   27.9449997      -5.60711925E-14
   28.0599995      -5.82923941E-14
   28.1749992      -5.76932436E-14
   28.2900009      -5.39352871E-14
   28.4050007      -4.68094225E-14
   28.5200005      -3.62615448E-14
   28.6350002      -2.24124630E-14
   28.7500000      -5.57042493E-15
   28.8649998       1.37650833E-14
   28.9799995       3.49092500E-14
   29.0949993       5.70081092E-14
   29.2099991       7.90650843E-14
   29.3250008       9.99773452E-14
   29.4400005       1.18581008E-13
   29.5550003       1.33703609E-13
   29.6700001       1.44221711E-13
   29.7849998       1.49121343E-13
   29.8999996       1.47558303E-13
   30.0149994       1.38915368E-13
   30.1299992       1.22853415E-13
   30.2450008       9.93533597E-14
   30.3600006       6.87461495E-14
   30.4750004       3.17285633E-14
   30.5900002      -1.06371609E-14
   30.7049999      -5.69410106E-14
   30.8199997      -1.05460677E-13
   30.9349995      -1.54214450E-13
   31.0499992      -2.01030382E-13
   31.1650009      -2.43629661E-13
   31.2800007      -2.79721342E-13
   31.3950005      -3.07105090E-13
   31.5100002      -3.23777490E-13
   31.6250000      -3.28037754E-13
   31.7399998      -3.18587794E-13
   31.8549995      -2.94622074E-13
   31.9699993      -2.55902070E-13
   32.0849991      -2.02811631E-13
   32.2000008      -1.36389164E-13
   32.3149986      -5.83336412E-14
   32.4300003       2.90172922E-14
   32.5449982       1.22738476E-13
   32.6599998       2.19397187E-13
   32.7750015       3.15160441E-13
   32.8899994       4.05927137E-13
   33.0050011       4.87481041E-13
   33.1199989       5.55659902E-13
   33.2350006       6.06534354E-13
   33.3499985       6.36590390E-13
   33.4650002       6.42907494E-13
   33.5800018       6.23325556E-13
   33.6949997       5.76592376E-13
   33.8100014       5.02484339E-13
   33.9249992       4.01893688E-13
   34.0400009       2.76876314E-13
   34.1549988       1.30654846E-13
   34.2700005      -3.24257019E-14
   34.3849983      -2.06991976E-13
   34.5000000      -3.86785737E-13
   34.6150017      -5.64854695E-13
   34.7299995      -7.33786187E-13
   34.8450012      -8.85977652E-13
   34.9599991      -1.01393535E-12
   35.0750008      -1.11059144E-12
   35.1899986      -1.16962776E-12
   35.3050003      -1.18579289E-12
   35.4199982      -1.15519812E-12
   35.5349998      -1.07558146E-12
   35.6500015      -9.46521832E-13
   35.7649994      -7.69592940E-13
   35.8800011      -5.48446434E-13
   35.9949989      -2.88812810E-13
   36.1100006       1.58355584E-15
   36.2249985       3.13199797E-13
   36.3400002       6.34939421E-13
   36.4550018       9.54500910E-13
   36.5699997       1.25880296E-12
   36.6850014       1.53447133E-12
   36.7999992       1.76837408E-12
   36.9150009       1.94818077E-12
   37.0299988       2.06292860E-12
   37.1450005       2.10356754E-12
   37.2599983       2.06345986E-12
   37.3750000       1.93881283E-12
   37.4900017       1.72901678E-12
   37.6049995       1.43687221E-12
   37.7200012       1.06868648E-12
   37.8349991       6.34230136E-13
   37.9500008       1.46544764E-13
   38.0649986      -3.78396072E-13
   38.1800003      -9.22167399E-13
   38.2949982      -1.46450246E-12
   38.4099998      -1.98401148E-12
   38.5250015      -2.45898440E-12
   38.6399994      -2.86825013E-12
   38.7550011      -3.19205426E-12
   38.8699989      -3.41292641E-12
   38.9850006      -3.51649352E-12
   39.0999985      -3.49220934E-12
   39.2150002      -3.33396071E-12
   39.3300018      -3.04052747E-12
   39.4449997      -2.61586564E-12
   39.5600014      -2.06920006E-12
   39.6749992      -1.41491116E-12
   39.7900009      -6.72220688E-13
   39.9049988       1.35327879E-13
   40.0200005       9.80574996E-13
   40.1349983       1.83361551E-12
   40.2500000       2.66281116E-12
   40.3650017       3.43590629E-12
   40.4799995       4.12120945E-12
   40.5950012       4.68880317E-12
   40.7099991       5.11173135E-12
   40.8250008       5.36712992E-12
   40.9399986       5.43724614E-12
   41.0550003       5.31032293E-12
   41.1699982       4.98129446E-12
   41.2849998       4.45227969E-12
   41.4000015       3.73283739E-12
   41.5149994       2.83997457E-12
   41.6300011       1.79789061E-12
   41.7449989       6.37466317E-13
   41.8600006      -6.04507167E-13
   41.9749985      -1.88633354E-12
   42.0900002      -3.16263118E-12
   42.2050018      -4.38574654E-12
   42.3199997      -5.50730295E-12
   42.4350014      -6.47986005E-12
   42.5499992      -7.25862859E-12
   42.6650009      -7.80318605E-12
   42.7799988      -8.07913719E-12
   42.8950005      -8.05966578E-12
   43.0099983      -7.72692067E-12
   43.1250000      -7.07317495E-12
   43.2400017      -6.10171505E-12
   43.3549995      -4.82740887E-12
   43.4700012      -3.27692517E-12
   43.5849991      -1.48855472E-12
   43.7000008       4.88366346E-13
   43.8149986       2.59443834E-12
   43.9300003       4.76159173E-12
   44.0449982       6.91485497E-12
   44.1599998       8.97446960E-12
   44.2750015       1.08583004E-11
   44.3899994       1.24844813E-11
   44.5050011       1.37742057E-11
   44.6199989       1.46546022E-11
   44.7350006       1.50615805E-11
   44.8499985       1.49425455E-11
   44.9650002       1.42589118E-11
   45.0800018       1.29882737E-11
   45.1949997       1.11261807E-11
   45.3100014       8.68740930E-12
   45.4249992       5.70666778E-12
   45.5400009       2.23868927E-12
   45.6549988      -1.64233904E-12
   45.7700005      -5.84399759E-12
   45.8849983      -1.02575179E-11
   46.0000000      -1.47602850E-11
   46.1150017      -1.92188921E-11
   46.2299995      -2.34926800E-11
   46.3450012      -2.74376303E-11
   46.4599991      -3.09105311E-11
   46.5750008      -3.37732516E-11
   46.6899986      -3.58969694E-11
   46.8050003      -3.71662354E-11
   46.9199982      -3.74827148E-11
   47.0349998      -3.67684251E-11
   47.1500015      -3.49684136E-11
   47.2649994      -3.20526869E-11
   47.3800011      -2.80173523E-11
   47.4949989      -2.28849127E-11
   47.6100006      -1.67036367E-11
   47.7249985      -9.54604538E-12
   47.8400002      -1.50655931E-12
   47.9550018       7.30165754E-12
   48.0699997       1.67505280E-11
   48.1850014       2.67014692E-11
   48.2999992       3.70101831E-11
   48.4150009       4.75316730E-11
   48.5299988       5.81253448E-11
   48.6450005       6.86599180E-11
   48.7599983       7.90180282E-11
   48.8750000       8.91003799E-11
   48.9900017       9.88291254E-11
   49.1049995       1.08150565E-10
   49.2200012       1.17036894E-10
   49.3349991       1.25486982E-10
   49.4500008       1.33526204E-10
   49.5649986       1.41205284E-10
   49.6800003       1.48598134E-10
   49.7949982       1.55799013E-10
   49.9099998       1.62918817E-10
   50.0250015       1.70080908E-10
   50.1399994       1.77416429E-10
   50.2550011       1.85059579E-10
   50.3699989       1.93142682E-10
   50.4850006       2.01791556E-10
   50.5999985       2.11121218E-10
   50.7150002       2.21231908E-10
   50.8300018       2.32205991E-10
   50.9449997       2.44105347E-10
   51.0600014       2.56969612E-10
   51.1749992       2.70815204E-10
   51.2900009       2.85635182E-10
   51.4049988       3.01399683E-10
   51.5200005       3.18056970E-10
   51.6349983       3.35535183E-10
   51.7500000       3.53744228E-10
   51.8650017       3.72578246E-10
   51.9799995       3.91917804E-10
   52.0950012       4.11632339E-10
   52.2099991       4.31582325E-10
   52.3250008       4.51621324E-10
   52.4399986       4.71597594E-10
   52.5550003       4.91355512E-10
   52.6699982       5.10736509E-10
   52.7849998       5.29579658E-10
   52.9000015       5.47722256E-10
   53.0149994       5.64999880E-10
   53.1300011       5.81246440E-10
   53.2449989       5.96294347E-10
   53.3600006       6.09974626E-10
   53.4749985       6.22117302E-10
   53.5900002       6.32551844E-10
   53.7050018       6.41108222E-10
   53.8199997       6.47618015E-10
   53.9350014       6.51916021E-10
   54.0499992       6.53842147E-10
   54.1650009       6.53243681E-10
   54.2799988       6.49977239E-10
   54.3950005       6.43911369E-10
   54.5099983       6.34928887E-10
   54.6250000       6.22928709E-10
   54.7400017       6.07827844E-10
   54.8549995       5.89562565E-10
   54.9700012       5.68089520E-10
   55.0849991       5.43385392E-10
   55.2000008       5.15446963E-10
   55.3149986       4.84289886E-10
   55.4300003       4.49946747E-10
   55.5449982       4.12465062E-10
   55.6599998       3.71904313E-10
   55.7750015       3.28332778E-10
   55.8899994       2.81824175E-10
   56.0050011       2.32454098E-10
   56.1199989       1.80296611E-10
   56.2350006       1.25420715E-10
   56.3499985       6.78875428E-11
   56.4650002       7.74770699E-12
   56.5800018      -5.49608553E-11
   56.6949997      -1.20214533E-10
   56.8100014      -1.88005098E-10
   56.9249992      -2.58339961E-10
   57.0400009      -3.31242284E-10
   57.1549988      -4.06750522E-10
   57.2700005      -4.84917106E-10
   57.3849983      -5.65807234E-10
   57.5000000      -6.49497289E-10
   57.6150017      -7.36073091E-10
   57.7299995      -8.25627455E-10
   57.8450012      -9.18258469E-10
   57.9599991      -1.01406727E-09
   58.0750008      -1.11315579E-09
   58.1899986      -1.21562482E-09
   58.3050003      -1.32157196E-09
   58.4199982      -1.43108936E-09
   58.5349998      -1.54426216E-09
   58.6500015      -1.66116632E-09
   58.7649994      -1.78186665E-09
   58.8800011      -1.90641525E-09
   58.9949989      -2.03485029E-09
   59.1100006      -2.16719265E-09
   59.2249985      -2.30344677E-09
   59.3400002      -2.44359821E-09
   59.4550018      -2.58761323E-09
   59.5699997      -2.73543765E-09
   59.6850014      -2.88699797E-09
   59.7999992      -3.04220005E-09
   59.9150009      -3.20093219E-09
   60.0299988      -3.36306494E-09
   60.1450005      -3.52845375E-09
   60.2599983      -3.69694120E-09
   60.3750000      -3.86836074E-09
   60.4900017      -4.04253919E-09
   60.6049995      -4.21930180E-09
   60.7200012      -4.39847447E-09
   60.8349991      -4.57988891E-09
   60.9500008      -4.76338613E-09
   61.0649986      -4.94881913E-09
   61.1800003      -5.13605736E-09
   61.2949982      -5.32498889E-09
   61.4099998      -5.51552182E-09
   61.5250015      -5.70758729E-09
   61.6399994      -5.90113824E-09
   61.7550011      -6.09615158E-09
   61.8699989      -6.29262686E-09
   61.9850006      -6.49058496E-09
   62.0999985      -6.69006539E-09
   62.2150002      -6.89112811E-09
   62.3300018      -7.09384729E-09
   62.4449997      -7.29831262E-09
   62.5600014      -7.50462448E-09
   62.6749992      -7.71289521E-09
   62.7900009      -7.92324428E-09
   62.9049988      -8.13580048E-09
   63.0200005      -8.35069702E-09
   63.1349983      -8.56807691E-09
   63.2500000      -8.78808670E-09
   63.3650017      -9.01088004E-09
   63.4799995      -9.23661769E-09
   63.5950012      -9.46546663E-09
   63.7099991      -9.69760361E-09
   63.8250008      -9.93320892E-09
   63.9399986      -1.01724735E-08
   64.0550003      -1.04155919E-08
   64.1699982      -1.06627649E-08
   64.2850037      -1.09141958E-08
   64.4000015      -1.11700906E-08
   64.5149994      -1.14306520E-08
   64.6299973      -1.16960743E-08
   64.7450027      -1.19665451E-08
   64.8600006      -1.22422339E-08
   64.9749985      -1.25232926E-08
   65.0899963      -1.28098456E-08
   65.2050018      -1.31019888E-08
   65.3199997      -1.33997826E-08
   65.4349976      -1.37032501E-08
   65.5500031      -1.40123682E-08
   65.6650009      -1.43270720E-08
   65.7799988      -1.46472434E-08
   65.8949966      -1.49727182E-08
   66.0100021      -1.53032751E-08
   66.1250000      -1.56386495E-08
   66.2399979      -1.59785216E-08
   66.3550034      -1.63225220E-08
   66.4700012      -1.66702421E-08
   66.5849991      -1.70212253E-08
   66.6999969      -1.73749797E-08
   66.8150024      -1.77309865E-08
   66.9300003      -1.80886950E-08
   67.0449982      -1.84475351E-08
   67.1600037      -1.88069222E-08
   67.2750015      -1.91662650E-08
   67.3899994      -1.95249648E-08
   67.5049973      -1.98824353E-08
   67.6200027      -2.02380974E-08
   67.7350006      -2.05913935E-08
   67.8499985      -2.09417870E-08
   67.9649963      -2.12887734E-08
   68.0800018      -2.16318856E-08
   68.1949997      -2.19706973E-08
   68.3099976      -2.23048264E-08
   68.4250031      -2.26339374E-08
   68.5400009      -2.29577548E-08
   68.6549988      -2.32760442E-08
   68.7699966      -2.35886315E-08
   68.8850021      -2.38953994E-08
   69.0000000      -2.41962823E-08
   69.1149979      -2.44912712E-08
   69.2300034      -2.47804053E-08
   69.3450012      -2.50637715E-08
   69.4599991      -2.53415013E-08
   69.5749969      -2.56137671E-08
   69.6900024      -2.58807766E-08
   69.8050003      -2.61427662E-08
   69.9199982      -2.63999951E-08
   70.0350037      -2.66527458E-08
   70.1500015      -2.69013132E-08
   70.2649994      -2.71459992E-08
   70.3799973      -2.73871095E-08
   70.4950027      -2.76249530E-08
   70.6100006      -2.78598229E-08
   70.7249985      -2.80920140E-08
   70.8399963      -2.83217911E-08
   70.9550018      -2.85494064E-08
   71.0699997      -2.87750783E-08
   71.1849976      -2.89990076E-08
   71.3000031      -2.92213436E-08
   71.4150009      -2.94422104E-08
   71.5299988      -2.96616740E-08
   71.6449966      -2.98797538E-08
   71.7600021      -3.00964196E-08
   71.8750000      -3.03115755E-08
   71.9899979      -3.05250616E-08
   72.1050034      -3.07366541E-08
   72.2200012      -3.09460475E-08
   72.3349991      -3.11528794E-08
   72.4499969      -3.13567092E-08
   72.5650024      -3.15570290E-08
   72.6800003      -3.17532667E-08
   72.7949982      -3.19447864E-08
   72.9100037      -3.21308988E-08
   73.0250015      -3.23108686E-08
   73.1399994      -3.24839249E-08
   73.2549973      -3.26492611E-08
   73.3700027      -3.28060707E-08
   73.4850006      -3.29535332E-08
   73.5999985      -3.30908492E-08
   73.7149963      -3.32172441E-08
   73.8300018      -3.33319825E-08
   73.9449997      -3.34343717E-08
   74.0599976      -3.35237829E-08
   74.1750031      -3.35996440E-08
   74.2900009      -3.36614718E-08
   74.4049988      -3.37088331E-08
   74.5199966      -3.37413830E-08
   74.6350021      -3.37588588E-08
   74.7500000      -3.37610686E-08
   74.8649979      -3.37478880E-08
   74.9800034      -3.37192638E-08
   75.0950012      -3.36751995E-08
   75.2099991      -3.36157520E-08
   75.3249969      -3.35410384E-08
   75.4400024      -3.34512009E-08
   75.5550003      -3.33464278E-08
   75.6699982      -3.32269394E-08
   75.7850037      -3.30929630E-08
   75.9000015      -3.29447651E-08
   76.0149994      -3.27826193E-08
   76.1299973      -3.26068275E-08
   76.2450027      -3.24177023E-08
   76.3600006      -3.22155600E-08
   76.4749985      -3.20007523E-08
   76.5899963      -3.17736308E-08
   76.7050018      -3.15345687E-08
   76.8199997      -3.12839354E-08
   76.9349976      -3.10221395E-08
   77.0500031      -3.07496038E-08
   77.1650009      -3.04667331E-08
   77.2799988      -3.01739433E-08
   77.3949966      -2.98716714E-08
   77.5100021      -2.95603257E-08
   77.6250000      -2.92403151E-08
   77.7399979      -2.89120408E-08
   77.8550034      -2.85758528E-08
   77.9700012      -2.82320993E-08
   78.0849991      -2.78810806E-08
   78.1999969      -2.75230612E-08
   78.3150024      -2.71582721E-08
   78.4300003      -2.67869016E-08
   78.5449982      -2.64090616E-08
   78.6600037      -2.60248250E-08
   78.7750015      -2.56342094E-08
   78.8899994      -2.52371617E-08
   79.0049973      -2.48335699E-08
   79.1200027      -2.44232581E-08
   79.2350006      -2.40060256E-08
   79.3499985      -2.35815811E-08
   79.4649963      -2.31495889E-08
   79.5800018      -2.27096777E-08
   79.6949997      -2.22614140E-08
   79.8099976      -2.18043219E-08
   79.9250031      -2.13378968E-08
   80.0400009      -2.08615862E-08
   80.1549988      -2.03748218E-08
   80.2699966      -1.98770191E-08
   80.3850021      -1.93675582E-08
   80.5000000      -1.88458547E-08
   80.6149979      -1.83113134E-08
   80.7300034      -1.77633801E-08
   80.8450012      -1.72015220E-08
   80.9599991      -1.66252523E-08
   81.0749969      -1.60341553E-08
   81.1900024      -1.54278652E-08
   81.3050003      -1.48061075E-08
   81.4199982      -1.41686733E-08
   81.5350037      -1.35154483E-08
   81.6500015      -1.28464022E-08
   81.7649994      -1.21615900E-08
   81.8799973      -1.14611574E-08
   81.9950027      -1.07453415E-08
   82.1100006      -1.00144142E-08
   82.2249985      -9.26874844E-09
   82.3399963      -8.50877502E-09
   82.4550018      -7.73495046E-09
   82.5699997      -6.94776370E-09
   82.6849976      -6.14773477E-09
   82.8000031      -5.33540412E-09
   82.9150009      -4.51127047E-09
   83.0299988      -3.67585562E-09
   83.1449966      -2.82965917E-09
   83.2600021      -1.97313632E-09
   83.3750000      -1.10674114E-09
   83.4899979      -2.30886740E-10
   83.6050034       6.54041321E-10
   83.7200012       1.54768065E-09
   83.8349991       2.44965159E-09
   83.9499969       3.35962724E-09
   84.0650024       4.27723723E-09
   84.1800003       5.20212584E-09
   84.2949982       6.13392581E-09
   84.4100037       7.07224723E-09
   84.5250015       8.01666555E-09
   84.6399994       8.96673580E-09
   84.7549973       9.92201787E-09
   84.8700027       1.08819709E-08
   84.9850006       1.18460797E-08
   85.0999985       1.28137945E-08
   85.2149963       1.37845211E-08
   85.3300018       1.47576644E-08
   85.4449997       1.57325264E-08
   85.5599976       1.67084693E-08
   85.6750031       1.76848332E-08
   85.7900009       1.86609377E-08
   85.9049988       1.96360972E-08
   86.0199966       2.06096313E-08
   86.1350021       2.15808988E-08
   86.2500000       2.25492496E-08
   86.3649979       2.35140245E-08
   86.4800034       2.44746445E-08
   86.5950012       2.54305217E-08
   86.7099991       2.63810822E-08
   86.8249969       2.73258305E-08
   86.9400024       2.82642638E-08
   87.0550003       2.91959434E-08
   87.1699982       3.01204643E-08
   87.2850037       3.10375086E-08
   87.4000015       3.19467901E-08
   87.5149994       3.28481207E-08
   87.6299973       3.37413830E-08
   87.7450027       3.46265310E-08
   87.8600006       3.55035965E-08
   87.9749985       3.63726649E-08
   88.0899963       3.72338818E-08
   88.2050018       3.80875065E-08
   88.3199997       3.89338517E-08
   88.4349976       3.97732407E-08
   88.5500031       4.06060785E-08
   88.6650009       4.14328234E-08
   88.7799988       4.22539870E-08
   88.8949966       4.30700986E-08
   89.0100021       4.38817231E-08
   89.1250000       4.46893793E-08
   89.2399979       4.54936533E-08
   89.3550034       4.62950602E-08
   89.4700012       4.70941792E-08
   89.5849991       4.78914473E-08
   89.6999969       4.86873653E-08
   89.8150024       4.94823453E-08
   89.9300003       5.02767818E-08
   90.0449982       5.10710265E-08
   90.1600037       5.18653742E-08
   90.2750015       5.26601021E-08
   90.3899994       5.34554481E-08
   90.5049973       5.42516005E-08
   90.6200027       5.50486874E-08
   90.7350006       5.58467690E-08
   90.8499985       5.66459235E-08
   90.9649963       5.74461012E-08
   91.0800018       5.82472772E-08
   91.1949997       5.90493023E-08
   91.3099976       5.98520415E-08
   91.4250031       6.06553670E-08
   91.5400009       6.14590405E-08
   91.6549988       6.22628562E-08
   91.7699966       6.30665440E-08
   91.8850021       6.38698410E-08
   92.0000000       6.46723990E-08
   92.1149979       6.54738983E-08
   92.2300034       6.62739694E-08
   92.3450012       6.70722144E-08
   92.4599991       6.78682426E-08
   92.5749969       6.86615707E-08
   92.6900024       6.94517368E-08
   92.8050003       7.02382792E-08
   92.9199982       7.10206720E-08
   93.0350037       7.17983966E-08
   93.1500015       7.25709270E-08
   93.2649994       7.33376879E-08
   93.3799973       7.40980610E-08
   93.4950027       7.48514211E-08
   93.6100006       7.55970646E-08
   93.7249985       7.63343593E-08
   93.8399963       7.70625661E-08
   93.9550018       7.77809532E-08
   94.0699997       7.84888243E-08
   94.1849976       7.91854760E-08
   94.3000031       7.98701834E-08
   94.4150009       8.05422928E-08
   94.5299988       8.12011223E-08
   94.6449966       8.18460393E-08
   94.7600021       8.24764186E-08
   94.8750000       8.30916775E-08
   94.9899979       8.36912335E-08
   95.1050034       8.42745749E-08
   95.2200012       8.48411901E-08
   95.3349991       8.53905888E-08
   95.4499969       8.59223306E-08
   95.5650024       8.64360032E-08
   95.6800003       8.69312160E-08
   95.7949982       8.74075923E-08
   95.9100037       8.78647768E-08
   96.0250015       8.83024143E-08
   96.1399994       8.87201352E-08
   96.2549973       8.91175986E-08
   96.3700027       8.94944492E-08
   96.4850006       8.98503387E-08
   96.5999985       9.01849120E-08
   96.7149963       9.04978279E-08
   96.8300018       9.07887667E-08
   96.9449997       9.10574656E-08
   97.0599976       9.13036331E-08
   97.1750031       9.15270562E-08
   97.2900009       9.17275287E-08
   97.4049988       9.19048730E-08
   97.5199966       9.20589187E-08
   97.6350021       9.21895307E-08
   97.7500000       9.22965810E-08
   97.8649979       9.23799206E-08
   97.9800034       9.24394428E-08
   98.0950012       9.24750125E-08
   98.2099991       9.24865091E-08
   98.3249969       9.24738046E-08
   98.4400024       9.24367711E-08