   0.00000000       0.00000000    
  0.115000002       0.00000000    
  0.230000004       0.00000000    
  0.344999999       0.00000000    
  0.460000008       0.00000000    
  0.574999988       0.00000000    
  0.689999998       9.39345712E-39
  0.805000007      -1.44287573E-36
  0.920000017      -1.64490259E-35
   1.03499997      -6.72632963E-35
   1.14999998       9.32460679E-36
   1.26499999       1.75507331E-33
   1.38000000       1.25831263E-32
   1.49500000       5.86802666E-32
   1.61000001       2.15478529E-31
   1.72500002       6.69101118E-31
   1.84000003       1.82422975E-30
   1.95500004       4.47021092E-30
   2.06999993       1.00042446E-29
   2.18499994       2.06858403E-29
   2.29999995       3.98605718E-29
   2.41499996       7.20469207E-29
   2.52999997       1.22732534E-28
   2.64499998       1.97682878E-28
   2.75999999       3.01532692E-28
   2.87500000       4.35424160E-28
   2.99000001       5.93508342E-28
   3.10500002       7.58302608E-28
   3.22000003       8.95298579E-28
   3.33500004       9.47980082E-28
   3.45000005       8.35637314E-28
   3.56500006       4.58018256E-28
   3.68000007      -2.87358714E-28
   3.79500008      -1.46827131E-27
   3.91000009      -3.05502640E-27
   4.02500010      -4.83002469E-27
   4.13999987      -6.27741034E-27
   4.25500011      -6.47651491E-27
   4.36999989      -4.04400915E-27
   4.48500013       2.80742153E-27
   4.59999990       1.60092095E-26
   4.71500015       3.70918761E-26
   4.82999992       6.63024649E-26
   4.94500017       1.01407595E-25
   5.05999994       1.36330412E-25
   5.17500019       1.59938344E-25
   5.28999996       1.55483843E-25
   5.40500021       1.01355955E-25
   5.51999998      -2.61460582E-26
   5.63500023      -2.47432115E-25
   5.75000000      -5.71430280E-25
   5.86499977      -9.85062347E-25
   5.98000002      -1.44181557E-24
   6.09499979      -1.85195155E-24
   6.21000004      -2.07795468E-24
   6.32499981      -1.93949046E-24
   6.44000006      -1.23207550E-24
   6.55499983       2.37564254E-25
   6.67000008       2.59902729E-24
   6.78499985       5.85223405E-24
   6.90000010       9.79649518E-24
   7.01499987       1.39686172E-23
   7.13000011       1.76085445E-23
   7.24499989       1.96733090E-23
   7.36000013       1.89185821E-23
   7.47499990       1.40605763E-23
   7.59000015       4.01905856E-24
   7.70499992      -1.17749828E-23
   7.82000017      -3.30439697E-23
   7.93499994      -5.83579418E-23
   8.05000019      -8.49319773E-23
   8.16499996      -1.08607100E-22
   8.27999973      -1.24087480E-22
   8.39500046      -1.25482022E-22
   8.51000023      -1.07154435E-22
   8.62500000      -6.48272008E-23
   8.73999977       3.18377122E-24
   8.85499954       9.47932372E-23
   8.97000027       2.03269652E-22
   9.08500004       3.16917737E-22
   9.19999981       4.19557604E-22
   9.31499958       4.91961580E-22
   9.43000031       5.14280462E-22
   9.54500008       4.69317460E-22
   9.65999985       3.46310392E-22
   9.77499962       1.44688437E-22
   9.89000034      -1.22875183E-22
   10.0050001      -4.28865834E-22
   10.1199999      -7.31481410E-22
   10.2349997      -9.77849158E-22
   10.3500004      -1.11008396E-21
   10.4650002      -1.07392217E-21
   10.5799999      -8.29132191E-22
   10.6949997      -3.60398917E-22
   10.8100004       3.13064057E-22
   10.9250002       1.13115788E-21
   11.0400000       1.99174913E-21
   11.1549997       2.75632171E-21
   11.2700005       3.26330284E-21
   11.3850002       3.34890634E-21
   11.5000000       2.87408670E-21
   11.6149998       1.75484610E-21
   11.7299995      -8.06388842E-24
   11.8450003      -2.30491575E-21
   11.9600000      -4.90342449E-21
   12.0749998      -7.45071628E-21
   12.1899996      -9.49453982E-21
   12.3050003      -1.05254637E-20
   12.4200001      -1.00392496E-20
   12.5349998      -7.61545527E-21
   12.6499996      -3.00521038E-21
   12.7650003       3.78187703E-21
   12.8800001       1.24037260E-20
   12.9949999       2.21378687E-20
   13.1099997       3.18723353E-20
   13.2250004       4.01458022E-20
   13.3400002       4.52439652E-20
   13.4549999       4.53533533E-20
   13.5699997       3.87677516E-20
   13.6850004       2.41351318E-20
   13.8000002       7.25980588E-22
   13.9150000      -3.13025565E-20
   14.0299997      -7.06767672E-20
   14.1450005      -1.14843197E-19
   14.2600002      -1.59906097E-19
   14.3750000      -2.00693882E-19
   14.4899998      -2.30979407E-19
   14.6049995      -2.43866803E-19
   14.7200003      -2.32348468E-19
   14.8350000      -1.90016479E-19
   14.9499998      -1.11901006E-19
   15.0649996       4.61332764E-21
   15.1800003       1.58860050E-19
   15.2950001       3.46031674E-19
   15.4099998       5.56491341E-19
   15.5249996       7.75359763E-19
   15.6400003       9.82491734E-19
   15.7550001       1.15294884E-18
   15.8699999       1.25806737E-18
   15.9849997       1.26718466E-18
   16.1000004       1.15005257E-18
   16.2150002       8.79906863E-19
   16.3299999       4.37093609E-19
   16.4449997      -1.86942237E-19
   16.5599995      -9.85565537E-19
   16.6749992      -1.93315025E-18
   16.7900009      -2.98200431E-18
   16.9050007      -4.06054443E-18
   17.0200005      -5.07328026E-18
   17.1350002      -5.90311240E-18
   17.2500000      -6.41640072E-18
   17.3649998      -6.47112740E-18
   17.4799995      -5.92816439E-18
   17.5949993      -4.66548105E-18
   17.7099991      -2.59468091E-18
   17.8250008       3.21152640E-19
   17.9400005       4.04961365E-18
   18.0550003       8.47297562E-18
   18.1700001       1.33760109E-17
   18.2849998       1.84398924E-17
   18.3999996       2.32442864E-17
   18.5149994       2.72795745E-17
   18.6299992       2.99705800E-17
   18.7450008       3.07124419E-17
   18.8600006       2.89181912E-17
   18.9750004       2.40764963E-17
   19.0900002       1.58165106E-17
   19.2049999       3.97565419E-18
   19.3199997      -1.13353059E-17
   19.4349995      -2.96763618E-17
   19.5499992      -5.02386193E-17
   19.6650009      -7.18281557E-17
   19.7800007      -9.28797302E-17
   19.8950005      -1.11505839E-16
   20.0100002      -1.25584109E-16
   20.1250000      -1.32883601E-16
   20.2399998      -1.31227082E-16
   20.3549995      -1.18683040E-16
   20.4699993      -9.37770558E-17
   20.5849991      -5.57083445E-17
   20.7000008      -4.55526750E-18
   20.8150005       5.85502988E-17
   20.9300003       1.31299040E-16
   21.0450001       2.10151058E-16
   21.1599998       2.90370729E-16
   21.2749996       3.66163079E-16
   21.3899994       4.30919568E-16
   21.5049992       4.77573534E-16
   21.6200008       4.99056831E-16
   21.7350006       4.88840237E-16
   21.8500004       4.41529635E-16
   21.9650002       3.53481143E-16
   22.0799999       2.23391546E-16
   22.1949997       5.28135267E-17
   22.3099995      -1.53457025E-16
   22.4249992      -3.87172196E-16
   22.5400009      -6.36648174E-16
   22.6550007      -8.87041596E-16
   22.7700005      -1.12090813E-15
   22.8850002      -1.31904576E-15
   23.0000000      -1.46160596E-15
   23.1149998      -1.52942831E-15
   23.2299995      -1.50553521E-15
   23.3449993      -1.37669853E-15
   23.4599991      -1.13497036E-15
   23.5750008      -7.79059083E-16
   23.6900005      -3.15425011E-16
   23.8050003       2.41022431E-16
   23.9200001       8.66743616E-16
   24.0349998       1.52997782E-15
   24.1499996       2.19179643E-15
   24.2649994       2.80781893E-15
   24.3799992       3.33053418E-15
   24.4950008       3.71215408E-15
   24.6100006       3.90784961E-15
   24.7250004       3.87918728E-15
   24.8400002       3.59754247E-15
   24.9549999       3.04724486E-15
   25.0699997       2.22820424E-15
   25.1849995       1.15777418E-15
   25.2999992      -1.28347038E-16
   25.4150009      -1.57636442E-15
   25.5300007      -3.11584458E-15
   25.6450005      -4.66242933E-15
   25.7600002      -6.12172014E-15
   25.8750000      -7.39418258E-15
   25.9899998      -8.38082435E-15
   26.1049995      -8.98935061E-15
   26.2199993      -9.14041470E-15
   26.3349991      -8.77357235E-15
   26.4500008      -7.85256971E-15
   26.5650005      -6.36953106E-15
   26.6800003      -4.34777904E-15
   26.7950001      -1.84300690E-15
   26.9099998       1.05734265E-15
   27.0249996       4.23654709E-15
   27.1399994       7.55283694E-15
   27.2549992       1.08452320E-14
   27.3700008       1.39406978E-14
   27.4850006       1.66622460E-14
   27.6000004       1.88375757E-14
   27.7150002       2.03077911E-14
   27.8299999       2.09357678E-14
   27.9449997       2.06137055E-14
   28.0599995       1.92695540E-14
   28.1749992       1.68719680E-14
   28.2900009       1.34336198E-14
   28.4050007       9.01279394E-15
   28.5200005       3.71312817E-15
   28.6350002      -2.31820826E-15
   28.7500000      -8.89399079E-15
   28.8649998      -1.57917451E-14
   28.9799995      -2.27596889E-14
   29.0949993      -2.95236519E-14
   29.2099991      -3.57947450E-14
   29.3250008      -4.12776197E-14
   29.4400005      -4.56792705E-14
   29.5550003      -4.87182214E-14
   29.6700001      -5.01341353E-14
   29.7849998      -4.96977574E-14
   29.8999996      -4.72212499E-14
   30.0149994      -4.25686809E-14
   30.1299992      -3.56666567E-14
   30.2450008      -2.65147418E-14
   30.3600006      -1.51952950E-14
   30.4750004      -1.88219445E-15
   30.5900002       1.31521736E-14
   30.7049999       2.95324847E-14
   30.8199997       4.67793969E-14
   30.9349995       6.43127180E-14
   31.0499992       8.14595854E-14
   31.1650009       9.74684336E-14
   31.2800007       1.11529133E-13
   31.3950005       1.22799530E-13
   31.5100002       1.30438181E-13
   31.6250000       1.33642731E-13
   31.7399998       1.31692698E-13
   31.8549995       1.23995351E-13
   31.9699993       1.10132328E-13
   32.0849991       8.99049105E-14
   32.2000008       6.33750187E-14
   32.3149986       3.08991792E-14
   32.4300003      -6.84770784E-15
   32.5449982      -4.88611633E-14
   32.6599998      -9.38113926E-14
   32.7750015      -1.40064501E-13
   32.8899994      -1.85722016E-13
   33.0050011      -2.28679163E-13
   33.1199989      -2.66700860E-13
   33.2350006      -2.97513804E-13
   33.3499985      -3.18912106E-13
   33.4650002      -3.28871668E-13
   33.5800018      -3.25669396E-13
   33.6949997      -3.08000533E-13
   33.8100014      -2.75088844E-13
   33.9249992      -2.26782094E-13
   34.0400009      -1.63627019E-13
   34.1549988      -8.69171949E-14
   34.2700005       1.29092448E-15
   34.3849983       9.81983795E-14
   34.5000000       2.00322926E-13
   34.6150017       3.03597940E-13
   34.7299995       4.03509691E-13
   34.8450012       4.95269732E-13
   34.9599991       5.74016854E-13
   35.0750008       6.35041119E-13
   35.1899986       6.74020627E-13
   35.3050003       6.87259874E-13
   35.4199982       6.71918575E-13
   35.5349998       6.26218153E-13
   35.6500015       5.49613903E-13
   35.7649994       4.42921361E-13
   35.8800011       3.08387783E-13
   35.9949989       1.49700442E-13
   36.1100006      -2.80727895E-14
   36.2249985      -2.18612820E-13
   36.3400002      -4.14547249E-13
   36.4550018      -6.07710768E-13
   36.5699997      -7.89461270E-13
   36.6850014      -9.51038293E-13
   36.7999992      -1.08395053E-12
   36.9150009      -1.18037535E-12
   37.0299988      -1.23355167E-12
   37.1450005      -1.23814934E-12
   37.2599983      -1.19059450E-12
   37.3750000      -1.08933533E-12
   37.4900017      -9.35032867E-13
   37.6049995      -7.30663956E-13
   37.7200012      -4.81530614E-13
   37.8349991      -1.95166528E-13
   37.9500008       1.18854430E-13
   38.0649986       4.49206996E-13
   38.1800003       7.83189757E-13
   38.2949982       1.10717663E-12
   38.4099998       1.40712604E-12
   38.5250015       1.66913152E-12
   38.6399994       1.87999095E-12
   38.7550011       2.02777313E-12
   38.8699989       2.10236255E-12
   38.9850006       2.09595297E-12
   39.0999985       2.00347876E-12
   39.2150002       1.82295910E-12
   39.3300018       1.55574414E-12
   39.4449997       1.20664557E-12
   39.5600014       7.83949078E-13
   39.6749992       2.99298509E-13
   39.7900009      -2.32545943E-13
   39.9049988      -7.94073357E-13
   40.0200005      -1.36550504E-12
   40.1349983      -1.92538303E-12
   40.2500000      -2.45125166E-12
   40.3650017      -2.92041218E-12
   40.4799995      -3.31073103E-12
   40.5950012      -3.60147849E-12
   40.7099991      -3.77417325E-12
   40.8250008      -3.81340012E-12
   40.9399986      -3.70758025E-12
   41.0550003      -3.44965983E-12
   41.1699982      -3.03768902E-12
   41.2849998      -2.47526001E-12
   41.4000015      -1.77178888E-12
   41.5149994      -9.42605802E-13
   41.6300011      -8.84537533E-15
   41.7449989       1.00287931E-12
   41.8600006       2.06102778E-12
   41.9749985       3.12989977E-12
   42.0900002       4.17061524E-12
   42.2050018       5.14228850E-12
   42.3199997       6.00336317E-12
   42.4350014       6.71307801E-12
   42.5499992       7.23301540E-12
   42.6650009       7.52867994E-12
   42.7799988       7.57105576E-12
   42.8950005       7.33807719E-12
   43.0099983       6.81594538E-12
   43.1250000       6.00023980E-12
   43.2400017       4.89676745E-12
   43.3549995       3.52208670E-12
   43.4700012       1.90368142E-12
   43.5849991       7.97406032E-14
   43.7000008      -1.90146401E-12
   43.8149986      -3.98259854E-12
   43.9300003      -6.09869100E-12
   44.0449982      -8.17890113E-12
   44.1599998      -1.01486137E-11
   44.2750015      -1.19317820E-11
   44.3899994      -1.34534493E-11
   44.5050011      -1.46423706E-11
   44.6199989      -1.54336457E-11
   44.7350006      -1.57712645E-11
   44.8499985      -1.56104817E-11
   44.9650002      -1.49199160E-11
   45.0800018      -1.36833175E-11
   45.1949997      -1.19009039E-11
   45.3100014      -9.59022445E-12
   45.4249992      -6.78649715E-12
   45.5400009      -3.54241007E-12
   45.6549988       7.26521436E-14
   45.7700005       3.97391668E-12
   45.8849983       8.06305717E-12
   46.0000000       1.22305100E-11
   46.1150017       1.63581995E-11
   46.2299995       2.03226151E-11
   46.3450012       2.39981437E-11
   46.4599991       2.72605584E-11
   46.5750008       2.99905829E-11
   46.6899986       3.20773998E-11
   46.8050003       3.34220117E-11
   46.9199982       3.39403609E-11
   47.0349998       3.35660701E-11
   47.1500015       3.22527734E-11
   47.2649994       2.99759002E-11
   47.3800011       2.67338651E-11
   47.4949989       2.25486591E-11
   47.6100006       1.74657112E-11
   47.7249985       1.15531005E-11
   47.8400002       4.90006907E-12
   47.9550018      -2.38510795E-12
   48.0699997      -1.01778551E-11
   48.1850014      -1.83405773E-11
   48.2999992      -2.67263711E-11
   48.4150009      -3.51830717E-11
   48.5299988      -4.35575187E-11
   48.6450005      -5.16999117E-11
   48.7599983      -5.94680971E-11
   48.8750000      -6.67316410E-11
   48.9900017      -7.33756042E-11
   49.1049995      -7.93038205E-11
   49.2200012      -8.44415371E-11
   49.3349991      -8.87374826E-11
   49.4500008      -9.21650395E-11
   49.5649986      -9.47226880E-11
   49.6800003      -9.64335972E-11
   49.7949982      -9.73443340E-11
   49.9099998      -9.75228717E-11
   50.0250015      -9.70558009E-11
   50.1399994      -9.60449983E-11
   50.2550011      -9.46037554E-11
   50.3699989      -9.28525451E-11
   50.4850006      -9.09146508E-11
   50.5999985      -8.89117252E-11
   50.7150002      -8.69594674E-11
   50.8300018      -8.51636331E-11
   50.9449997      -8.36163846E-11
   51.0600014      -8.23933005E-11
   51.1749992      -8.15509257E-11
   51.2900009      -8.11251066E-11
   51.4049988      -8.11300263E-11
   51.5200005      -8.15580728E-11
   51.6349983      -8.23803248E-11
   51.7500000      -8.35478492E-11
   51.8650017      -8.49935677E-11
   51.9799995      -8.66345815E-11
   52.0950012      -8.83749809E-11
   52.2099991      -9.01089411E-11
   52.3250008      -9.17238716E-11
   52.4399986      -9.31037331E-11
   52.5550003      -9.41322020E-11
   52.6699982      -9.46956957E-11
   52.7849998      -9.46860784E-11
   52.9000015      -9.40030415E-11
   53.0149994      -9.25561294E-11
   53.1300011      -9.02662667E-11
   53.2449989      -8.70669647E-11
   53.3600006      -8.29048705E-11
   53.4749985      -7.77400852E-11
   53.5900002      -7.15460607E-11
   53.7050018      -6.43089609E-11
   53.8199997      -5.60269470E-11
   53.9350014      -4.67090672E-11
   54.0499992      -3.63738206E-11
   54.1650009      -2.50479030E-11
   54.2799988      -1.27642341E-11
   54.3950005       4.39476174E-13
   54.5099983       1.45227285E-11
   54.6250000       2.94438952E-11
   54.7400017       4.51621865E-11
   54.8549995       6.16391937E-11
   54.9700012       7.88408019E-11
   55.0849991       9.67387420E-11
   55.2000008       1.15312031E-10
   55.3149986       1.34548331E-10
   55.4300003       1.54445109E-10
   55.5449982       1.75010562E-10
   55.6599998       1.96264241E-10
   55.7750015       2.18237359E-10
   55.8899994       2.40972908E-10
   56.0050011       2.64525291E-10
   56.1199989       2.88959495E-10
   56.2350006       3.14350157E-10
   56.3499985       3.40779932E-10
   56.4650002       3.68337555E-10
   56.5800018       3.97115785E-10
   56.6949997       4.27208657E-10
   56.8100014       4.58708654E-10
   56.9249992       4.91703622E-10
   57.0400009       5.26273691E-10
   57.1549988       5.62487945E-10
   57.2700005       6.00401229E-10
   57.3849983       6.40050901E-10
   57.5000000       6.81454504E-10
   57.6150017       7.24607041E-10
   57.7299995       7.69478981E-10
   57.8450012       8.16014978E-10
   57.9599991       8.64132932E-10
   58.0750008       9.13723708E-10
   58.1899986       9.64652136E-10
   58.3050003       1.01675757E-09
   58.4199982       1.06985654E-09
   58.5349998       1.12374499E-09
   58.6500015       1.17820131E-09
   58.7649994       1.23299060E-09
   58.8800011       1.28786848E-09
   58.9949989       1.34258538E-09
   59.1100006       1.39689116E-09
   59.2249985       1.45053980E-09
   59.3400002       1.50329349E-09
   59.4550018       1.55492696E-09
   59.5699997       1.60523117E-09
   59.6850014       1.65401548E-09
   59.7999992       1.70111114E-09
   59.9150009       1.74637227E-09
   60.0299988       1.78967674E-09
   60.1450005       1.83092630E-09
   60.2599983       1.87004545E-09
   60.3750000       1.90697946E-09
   60.4900017       1.94169303E-09
   60.6049995       1.97416683E-09
   60.7200012       2.00439310E-09
   60.8349991       2.03237271E-09
   60.9500008       2.05811079E-09
   61.0649986       2.08161177E-09
   61.1800003       2.10287654E-09
   61.2949982       2.12189621E-09
   61.4099998       2.13865059E-09
   61.5250015       2.15310325E-09
   61.6399994       2.16520002E-09
   61.7550011       2.17486673E-09
   61.8699989       2.18200813E-09
   61.9850006       2.18650675E-09
   62.0999985       2.18822427E-09
   62.2150002       2.18700369E-09
   62.3300018       2.18266916E-09
   62.4449997       2.17503282E-09
   62.5600014       2.16389506E-09
   62.6749992       2.14905183E-09
   62.7900009       2.13029838E-09
   62.9049988       2.10743578E-09
   63.0200005       2.08027684E-09
   63.1349983       2.04865147E-09
   63.2500000       2.01241424E-09
   63.3650017       1.97144945E-09
   63.4799995       1.92567651E-09
   63.5950012       1.87505589E-09
   63.7099991       1.81959281E-09
   63.8250008       1.75933978E-09
   63.9399986       1.69440006E-09
   64.0550003       1.62492864E-09
   64.1699982       1.55112989E-09
   64.2850037       1.47325696E-09
   64.4000015       1.39160827E-09
   64.5149994       1.30652289E-09
   64.6299973       1.21837196E-09
   64.7450027       1.12755216E-09
   64.8600006       1.03447528E-09
   64.9749985       9.39558209E-10
   65.0899963       8.43210446E-10
   65.2050018       7.45822404E-10
   65.3199997       6.47752851E-10
   65.4349976       5.49315760E-10
   65.5500031       4.50766896E-10
   65.6650009       3.52294000E-10
   65.7799988       2.54001903E-10
   65.8949966       1.55906565E-10
   66.0100021       5.79242591E-11
   66.1250000      -4.01360022E-11
   66.2399979      -1.38575221E-10
   66.3550034      -2.37809300E-10
   66.4700012      -3.38369888E-10
   66.5849991      -4.40902204E-10
   66.6999969      -5.46162005E-10
   66.8150024      -6.55009713E-10
   66.9300003      -7.68402897E-10
   67.0449982      -8.87388107E-10
   67.1600037      -1.01308628E-09
   67.2750015      -1.14668419E-09
   67.3899994      -1.28941746E-09
   67.5049973      -1.44255496E-09
   67.6200027      -1.60738456E-09
   67.7350006      -1.78519555E-09
   67.8499985      -1.97726124E-09
   67.9649963      -2.18482210E-09
   68.0800018      -2.40906894E-09
   68.1949997      -2.65112576E-09
   68.3099976      -2.91203062E-09
   68.4250031      -3.19272631E-09
   68.5400009      -3.49404017E-09
   68.6549988      -3.81667409E-09
   68.7699966      -4.16119317E-09
   68.8850021      -4.52801086E-09
   69.0000000      -4.91738472E-09
   69.1149979      -5.32941025E-09
   69.2300034      -5.76401593E-09
   69.3450012      -6.22095797E-09
   69.4599991      -6.69982692E-09
   69.5749969      -7.20004767E-09
   69.6900024      -7.72088526E-09
   69.8050003      -8.26145552E-09
   69.9199982      -8.82073348E-09
   70.0350037      -9.39757072E-09
   70.1500015      -9.99070426E-09
   70.2649994      -1.05987787E-08
   70.3799973      -1.12203677E-08
   70.4950027      -1.18539889E-08
   70.6100006      -1.24981314E-08
   70.7249985      -1.31512676E-08
   70.8399963      -1.38118930E-08
   70.9550018      -1.44785295E-08
   71.0699997      -1.51497677E-08
   71.1849976      -1.58242681E-08
   71.3000031      -1.65007989E-08
   71.4150009      -1.71782411E-08
   71.5299988      -1.78556174E-08
   71.6449966      -1.85321056E-08
   71.7600021      -1.92070342E-08
   71.8750000      -1.98799306E-08
   71.9899979      -2.05504946E-08
   72.1050034      -2.12186215E-08
   72.2200012      -2.18844072E-08
   72.3349991      -2.25481447E-08
   72.4499969      -2.32103208E-08
   72.5650024      -2.38716193E-08
   72.6800003      -2.45329161E-08
   72.7949982      -2.51952592E-08
   72.9100037      -2.58598654E-08
   73.0250015      -2.65281095E-08
   73.1399994      -2.72015104E-08
   73.2549973      -2.78817076E-08
   73.3700027      -2.85704491E-08
   73.4850006      -2.92695717E-08
   73.5999985      -2.99809741E-08
   73.7149963      -3.07066053E-08
   73.8300018      -3.14484438E-08
   73.9449997      -3.22084546E-08
   74.0599976      -3.29886021E-08
   74.1750031      -3.37907942E-08
   74.2900009      -3.46168925E-08
   74.4049988      -3.54686804E-08
   74.5199966      -3.63478456E-08
   74.6350021      -3.72559619E-08
   74.7500000      -3.81944822E-08
   74.8649979      -3.91647177E-08
   74.9800034      -4.01678442E-08
   75.0950012      -4.12048742E-08
   75.2099991      -4.22766568E-08
   75.3249969      -4.33838778E-08
   75.4400024      -4.45270594E-08
   75.5550003      -4.57065426E-08
   75.6699982      -4.69224979E-08
   75.7850037      -4.81749289E-08
   75.9000015      -4.94636723E-08
   76.0149994      -5.07884046E-08
   76.1299973      -5.21486214E-08
   76.2450027      -5.35436762E-08
   76.3600006      -5.49727659E-08
   76.4749985      -5.64349207E-08
   76.5899963      -5.79290642E-08
   76.7050018      -5.94539458E-08
   76.8199997      -6.10082154E-08
   76.9349976      -6.25903951E-08
   77.0500031      -6.41988933E-08
   77.1650009      -6.58320189E-08
   77.2799988      -6.74880098E-08
   77.3949966      -6.91650328E-08
   77.5100021      -7.08611836E-08
   77.6250000      -7.25745437E-08
   77.7399979      -7.43031521E-08
   77.8550034      -7.60450476E-08
   77.9700012      -7.77982976E-08
   78.0849991      -7.95609836E-08
   78.1999969      -8.13312369E-08
   78.3150024      -8.31072668E-08
   78.4300003      -8.48873469E-08
   78.5449982      -8.66698784E-08
   78.6600037      -8.84533549E-08
   78.7750015      -9.02364050E-08
   78.8899994      -9.20177996E-08
   79.0049973      -9.37964657E-08
   79.1200027      -9.55714654E-08
   79.2350006      -9.73420313E-08
   79.3499985      -9.91075737E-08
   79.4649963      -1.00867666E-07
   79.5800018      -1.02622039E-07
   79.6949997      -1.04370585E-07
   79.8099976      -1.06113340E-07
   79.9250031      -1.07850482E-07
   80.0400009      -1.09582352E-07
   80.1549988      -1.11309369E-07
   80.2699966      -1.13032094E-07
   80.3850021      -1.14751181E-07
   80.5000000      -1.16467348E-07
   80.6149979      -1.18181404E-07
   80.7300034      -1.19894196E-07
   80.8450012      -1.21606632E-07
   80.9599991      -1.23319637E-07
   81.0749969      -1.25034163E-07
   81.1900024      -1.26751161E-07
   81.3050003      -1.28471640E-07
   81.4199982      -1.30196540E-07
   81.5350037      -1.31926868E-07
   81.6500015      -1.33663576E-07
   81.7649994      -1.35407646E-07
   81.8799973      -1.37160072E-07
   81.9950027      -1.38921777E-07
   82.1100006      -1.40693743E-07
   82.2249985      -1.42476907E-07
   82.3399963      -1.44272263E-07
   82.4550018      -1.46080737E-07
   82.5699997      -1.47903336E-07
   82.6849976      -1.49740970E-07
   82.8000031      -1.51594620E-07
   82.9150009      -1.53465294E-07
   83.0299988      -1.55353902E-07
   83.1449966      -1.57261411E-07
   83.2600021      -1.59188730E-07
   83.3750000      -1.61136811E-07
   83.4899979      -1.63106492E-07
   83.6050034      -1.65098641E-07
   83.7200012      -1.67114024E-07
   83.8349991      -1.69153395E-07
   83.9499969      -1.71217451E-07
   84.0650024      -1.73306731E-07
   84.1800003      -1.75421789E-07
   84.2949982      -1.77563038E-07
   84.4100037      -1.79730776E-07
   84.5250015      -1.81925188E-07
   84.6399994      -1.84146401E-07
   84.7549973      -1.86394345E-07
   84.8700027      -1.88668835E-07
   84.9850006      -1.90969516E-07
   85.0999985      -1.93295918E-07
   85.2149963      -1.95647402E-07
   85.3300018      -1.98023145E-07
   85.4449997      -2.00422150E-07
   85.5599976      -2.02843268E-07
   85.6750031      -2.05285133E-07
   85.7900009      -2.07746240E-07
   85.9049988      -2.10224812E-07
   86.0199966      -2.12718987E-07
   86.1350021      -2.15226635E-07
   86.2500000      -2.17745480E-07
   86.3649979      -2.20273066E-07
   86.4800034      -2.22806747E-07
   86.5950012      -2.25343783E-07
   86.7099991      -2.27881259E-07
   86.8249969      -2.30416120E-07
   86.9400024      -2.32945254E-07
   87.0550003      -2.35465464E-07
   87.1699982      -2.37973467E-07
   87.2850037      -2.40465937E-07
   87.4000015      -2.42939564E-07
   87.5149994      -2.45391021E-07
   87.6299973      -2.47817013E-07
   87.7450027      -2.50214384E-07
   87.8600006      -2.52579895E-07
   87.9749985      -2.54910532E-07
   88.0899963      -2.57203368E-07
   88.2050018      -2.59455561E-07
   88.3199997      -2.61664411E-07
   88.4349976      -2.63827445E-07
   88.5500031      -2.65942248E-07
   88.6650009      -2.68006687E-07
   88.7799988      -2.70018717E-07
   88.8949966      -2.71976432E-07
   89.0100021      -2.73878129E-07
   89.1250000      -2.75722329E-07
   89.2399979      -2.77507525E-07
   89.3550034      -2.79232495E-07
   89.4700012      -2.80896131E-07
   89.5849991      -2.82497410E-07
   89.6999969      -2.84035394E-07
   89.8150024      -2.85509230E-07
   89.9300003      -2.86918180E-07
   90.0449982      -2.88261532E-07
   90.1600037      -2.89538576E-07
   90.2750015      -2.90748659E-07
   90.3899994      -2.91891183E-07
   90.5049973      -2.92965410E-07
   90.6200027      -2.93970658E-07
   90.7350006      -2.94906243E-07
   90.8499985      -2.95771287E-07
   90.9649963      -2.96564963E-07
   91.0800018      -2.97286363E-07
   91.1949997      -2.97934463E-07
   91.3099976      -2.98508127E-07
   91.4250031      -2.99006246E-07
   91.5400009      -2.99427541E-07
   91.6549988      -2.99770676E-07
   91.7699966      -3.00034202E-07
   91.8850021      -3.00216669E-07
   92.0000000      -3.00316515E-07
   92.1149979      -3.00332061E-07
   92.2300034      -3.00261689E-07
   92.3450012      -3.00103693E-07
   92.4599991      -2.99856310E-07
   92.5749969      -2.99517723E-07
   92.6900024      -2.99086196E-07
   92.8050003      -2.98559911E-07
   92.9199982      -2.97937106E-07
   93.0350037      -2.97215990E-07
   93.1500015      -2.96394802E-07
   93.2649994      -2.95471779E-07
   93.3799973      -2.94445243E-07
   93.4950027      -2.93313491E-07
   93.6100006      -2.92074901E-07
   93.7249985      -2.90727826E-07
   93.8399963      -2.89270702E-07
   93.9550018      -2.87701937E-07
   94.0699997      -2.86020054E-07
   94.1849976      -2.84223574E-07
   94.3000031      -2.82311021E-07
   94.4150009      -2.80280943E-07
   94.5299988      -2.78132006E-07
   94.6449966      -2.75862760E-07
   94.7600021      -2.73471898E-07
   94.8750000      -2.70958111E-07
   94.9899979      -2.68320093E-07
   95.1050034      -2.65556565E-07
   95.2200012      -2.62666276E-07
   95.3349991      -2.59648033E-07
   95.4499969      -2.56500670E-07
   95.5650024      -2.53223050E-07
   95.6800003      -2.49814093E-07
   95.7949982      -2.46272776E-07
   95.9100037      -2.42598105E-07
   96.0250015      -2.38789170E-07
   96.1399994      -2.34845160E-07
   96.2549973      -2.30765281E-07
   96.3700027      -2.26548863E-07
   96.4850006      -2.22195339E-07
   96.5999985      -2.17704212E-07
   96.7149963      -2.13075083E-07
   96.8300018      -2.08307654E-07
   96.9449997      -2.03401697E-07
   97.0599976      -1.98357100E-07
   97.1750031      -1.93173832E-07
   97.2900009      -1.87851953E-07
   97.4049988      -1.82391560E-07
   97.5199966      -1.76792852E-07
   97.6350021      -1.71056058E-07
   97.7500000      -1.65181476E-07
   97.8649979      -1.59169403E-07
   97.9800034      -1.53020224E-07
   98.0950012      -1.46734280E-07
   98.2099991      -1.40311968E-07
   98.3249969      -1.33753630E-07
   98.4400024      -1.27059664E-07