   0.00000000       0.00000000    
  0.115000002       0.00000000    
  0.230000004       0.00000000    
  0.344999999       0.00000000    
  0.460000008       0.00000000    
  0.574999988       0.00000000    
  0.689999998      -6.57694390E-37
  0.805000007      -4.39538962E-36
  0.920000017      -3.83562895E-36
   1.03499997       3.77173663E-35
   1.14999998      -9.92384918E-36
   1.26499999      -2.08606644E-33
   1.38000000      -1.70888197E-32
   1.49500000      -8.75785198E-32
   1.61000001      -3.46251477E-31
   1.72500002      -1.14400229E-30
   1.84000003      -3.29437238E-30
   1.95500004      -8.48477690E-30
   2.06999993      -1.98851454E-29
   2.18499994      -4.29243622E-29
   2.29999995      -8.60883463E-29
   2.41499996      -1.61414644E-28
   2.52999997      -2.84133119E-28
   2.64499998      -4.70683364E-28
   2.75999999      -7.34233539E-28
   2.87500000      -1.07700208E-27
   2.99000001      -1.47938007E-27
   3.10500002      -1.88732737E-27
   3.22000003      -2.20200603E-27
   3.33500004      -2.27913972E-27
   3.45000005      -1.94990103E-27
   3.56500006      -1.07918926E-27
   3.68000007       3.20549421E-28
   3.79500008       1.90403328E-27
   3.91000009       2.73025433E-27
   4.02500010       9.36546991E-28
   4.13999987      -6.60209401E-27
   4.25500011      -2.45337852E-26
   4.36999989      -5.90620468E-26
   4.48500013      -1.17550049E-25
   4.59999990      -2.07467484E-25
   4.71500015      -3.34464821E-25
   4.82999992      -4.99444356E-25
   4.94500017      -6.94673871E-25
   5.05999994      -8.99269187E-25
   5.17500019      -1.07474213E-24
   5.28999996      -1.16173268E-24
   5.40500021      -1.07943802E-24
   5.51999998      -7.29506666E-25
   5.63500023      -6.15105123E-27
   5.75000000       1.18618983E-24
   5.86499977       2.90723189E-24
   5.98000002       5.14833661E-24
   6.09499979       7.79611196E-24
   6.21000004       1.05973223E-23
   6.32499981       1.31324515E-23
   6.44000006       1.48068419E-23
   6.55499983       1.48689331E-23
   6.67000008       1.24641727E-23
   6.78499985       6.73034194E-24
   6.90000010      -3.06467117E-24
   7.01499987      -1.73482204E-23
   7.13000011      -3.60446135E-23
   7.24499989      -5.83744448E-23
   7.36000013      -8.26799183E-23
   7.47499990      -1.06309609E-22
   7.59000015      -1.25597814E-22
   7.70499992      -1.35971739E-22
   7.82000017      -1.32212823E-22
   7.93499994      -1.08888490E-22
   8.05000019      -6.09560395E-23
   8.16499996       1.54756240E-23
   8.27999973       1.22259001E-22
   8.39500046       2.58246504E-22
   8.51000023       4.18324784E-22
   8.62500000       5.92533545E-22
   8.73999977       7.65379507E-22
   8.85499954       9.15475479E-22
   8.97000027       1.01565783E-21
   9.08500004       1.03375281E-21
   9.19999981       9.34173476E-22
   9.31499958       6.80523217E-22
   9.43000031       2.39346785E-22
   9.54500008      -4.14903779E-22
   9.65999985      -1.29374360E-21
   9.77499962      -2.38761302E-21
   9.89000034      -3.65839932E-21
   10.0050001      -5.03229179E-21
   10.1199999      -6.39403707E-21
   10.2349997      -7.58394971E-21
   10.3500004      -8.39921375E-21
   10.4650002      -8.60105228E-21
   10.5799999      -7.92918372E-21
   10.6949997      -6.12448443E-21
   10.8100004      -2.96004341E-21
   10.9250002       1.72031676E-21
   11.0400000       7.95832406E-21
   11.1549997       1.56360982E-20
   11.2700005       2.44347844E-20
   11.3850002       3.38034466E-20
   11.5000000       4.29454403E-20
   11.6149998       5.08294699E-20
   11.7299995       5.62315571E-20
   11.8450003       5.78121506E-20
   11.9600000       5.42293341E-20
   12.0749998       4.42849332E-20
   12.1899996       2.70954496E-20
   12.3050003       2.27451646E-21
   12.4200001      -2.98910632E-20
   12.5349998      -6.82934337E-20
   12.6499996      -1.10907588E-19
   12.7650003      -1.54770055E-19
   12.8800001      -1.96052029E-19
   12.9949999      -2.30239985E-19
   13.1099997      -2.52427244E-19
   13.2250004      -2.57708508E-19
   13.3400002      -2.41655749E-19
   13.4549999      -2.00841262E-19
   13.5699997      -1.33361664E-19
   13.6850004      -3.93089701E-20
   13.8000002       7.88689314E-20
   13.9150000       2.16173210E-19
   14.0299997       3.65069313E-19
   14.1450005       5.15742201E-19
   14.2600002       6.56597927E-19
   14.3750000       7.74994046E-19
   14.4899998       8.58150875E-19
   14.6049995       8.94174281E-19
   14.7200003       8.73094513E-19
   14.8350000       7.87817052E-19
   14.9499998       6.34879318E-19
   15.0649996       4.14914622E-19
   15.1800003       1.32755625E-19
   15.2950001      -2.02861328E-19
   15.4099998      -5.79975153E-19
   15.5249996      -9.84399109E-19
   15.6400003      -1.40092229E-18
   15.7550001      -1.81454909E-18
   15.8699999      -2.21157531E-18
   15.9849997      -2.58029066E-18
   16.1000004      -2.91109797E-18
   16.2150002      -3.19589067E-18
   16.3299999      -3.42658928E-18
   16.4449997      -3.59284327E-18
   16.5599995      -3.67902722E-18
   16.6749992      -3.66081271E-18
   16.7900009      -3.50174132E-18
   16.9050007      -3.15037547E-18
   17.0200005      -2.53871367E-18
   17.1350002      -1.58266752E-18
   17.2500000      -1.85331419E-19
   17.3649998       1.75620515E-18
   17.4799995       4.34004297E-18
   17.5949993       7.64438632E-18
   17.7099991       1.17084628E-17
   17.8250008       1.65101991E-17
   17.9400005       2.19420312E-17
   18.0550003       2.77870019E-17
   18.1700001       3.36978492E-17
   18.2849998       3.91825398E-17
   18.3999996       4.36000019E-17
   18.5149994       4.61700189E-17
   18.6299992       4.60009399E-17
   18.7450008       4.21382050E-17
   18.8600006       3.36353772E-17
   18.9750004       1.96475446E-17
   19.0900002      -4.55400254E-19
   19.2049999      -2.69609677E-17
   19.3199997      -5.96799761E-17
   19.4349995      -9.78178198E-17
   19.5499992      -1.39864899E-16
   19.6650009      -1.83522804E-16
   19.7800007      -2.25682876E-16
   19.8950005      -2.62473964E-16
   20.0100002      -2.89393730E-16
   20.1250000      -3.01532480E-16
   20.2399998      -2.93893698E-16
   20.3549995      -2.61805867E-16
   20.4699993      -2.01410353E-16
   20.5849991      -1.10199787E-16
   20.7000008       1.24295468E-17
   20.8150005       1.64658123E-16
   20.9300003       3.41810484E-16
   21.0450001       5.36067988E-16
   21.1599998       7.36384980E-16
   21.2749996       9.28662148E-16
   21.3899994       1.09621649E-15
   21.5049992       1.22057416E-15
   21.6200008       1.28258279E-15
   21.7350006       1.26381921E-15
   21.8500004       1.14823003E-15
   21.9650002       9.23917598E-16
   22.0799999       5.84948195E-16
   22.1949997       1.33037827E-16
   22.3099995      -4.21046896E-16
   22.4249992      -1.05654348E-15
   22.5400009      -1.74236530E-15
   22.6550007      -2.43753170E-15
   22.7700005      -3.09245863E-15
   22.8850002      -3.65116347E-15
   23.0000000      -4.05436767E-15
   23.1149998      -4.24340975E-15
   23.2299995      -4.16480340E-15
   23.3449993      -3.77518519E-15
   23.4599991      -3.04634192E-15
   23.5750008      -1.96993902E-15
   23.6900005      -5.61531228E-16
   23.8050003       1.13655251E-15
   23.9200001       3.05386082E-15
   24.0349998       5.09234217E-15
   24.1499996       7.12898673E-15
   24.2649994       9.02071285E-15
   24.3799992       1.06114763E-14
   24.4950008       1.17413869E-14
   24.6100006       1.22574849E-14
   24.7250004       1.20255834E-14
   24.8400002       1.09425213E-14
   24.9549999       8.94794679E-15
   25.0699997       6.03476035E-15
   25.1849995       2.25726996E-15
   25.2999992      -2.26381011E-15
   25.4150009      -7.34029011E-15
   25.5300007      -1.27199412E-14
   25.6450005      -1.80947549E-14
   25.7600002      -2.31140621E-14
   25.8750000      -2.74022121E-14
   25.9899998      -3.05801222E-14
   26.1049995      -3.22897023E-14
   26.2199993      -3.22198526E-14
   26.3349991      -3.01324517E-14
   26.4500008      -2.58866076E-14
   26.5650005      -1.94593724E-14
   26.6800003      -1.09612179E-14
   26.7950001      -6.44643160E-16
   26.9099998       1.10952829E-14
   27.0249996       2.37293197E-14
   27.1399994       3.66117828E-14
   27.2549992       4.90073104E-14
   27.3700008       6.01259019E-14
   27.4850006       6.91648073E-14
   27.6000004       7.53552358E-14
   27.7150002       7.80115583E-14
   27.8299999       7.65801268E-14
   27.9449997       7.06847233E-14
   28.0599995       6.01657057E-14
   28.1749992       4.51099458E-14
   28.2900009       2.58690062E-14
   28.4050007       3.06370398E-15
   28.5200005      -2.24264051E-14
   28.6350002      -4.94890587E-14
   28.7500000      -7.68205215E-14
   28.8649998      -1.02980843E-13
   28.9799995      -1.26460881E-13
   29.0949993      -1.45758432E-13
   29.2099991      -1.59459631E-13
   29.3250008      -1.66321709E-13
   29.4400005      -1.65352663E-13
   29.5550003      -1.55883349E-13
   29.6700001      -1.37627689E-13
   29.7849998      -1.10727176E-13
   29.8999996      -7.57761096E-14
   30.0149994      -3.38255391E-14
   30.1299992       1.36360217E-14
   30.2450008       6.47253315E-14
   30.3600006       1.17229645E-13
   30.4750004       1.68692886E-13
   30.5900002       2.16519294E-13
   30.7049999       2.58090749E-13
   30.8199997       2.90892744E-13
   30.9349995       3.12643412E-13
   31.0499992       3.21419459E-13
   31.1650009       3.15773178E-13
   31.2800007       2.94833954E-13
   31.3950005       2.58389339E-13
   31.5100002       2.06939798E-13
   31.6250000       1.41724157E-13
   31.7399998       6.47117383E-14
   31.8549995      -2.14392611E-14
   31.9699993      -1.13458132E-13
   32.0849991      -2.07570574E-13
   32.2000008      -2.99637702E-13
   32.3149986      -3.85320167E-13
   32.4300003      -4.60261766E-13
   32.5449982      -5.20285366E-13
   32.6599998      -5.61593198E-13
   32.7750015      -5.80962362E-13
   32.8899994      -5.75927272E-13
   33.0050011      -5.44939636E-13
   33.1199989      -4.87497900E-13
   33.2350006      -4.04238058E-13
   33.3499985      -2.96980214E-13
   33.4650002      -1.68725480E-13
   33.5800018      -2.36013110E-14
   33.6949997       1.33246672E-13
   33.8100014       2.95813639E-13
   33.9249992       4.57442135E-13
   34.0400009       6.11069626E-13
   34.1549988       7.49509233E-13
   34.2700005       8.65752890E-13
   34.3849983       9.53285411E-13
   34.5000000       1.00639614E-12
   34.6150017       1.02047570E-12
   34.7299995       9.92282753E-13
   34.8450012       9.20168130E-13
   34.9599991       8.04245180E-13
   35.0750008       6.46493655E-13
   35.1899986       4.50791937E-13
   35.3050003       2.22869181E-13
   35.4199982      -2.98233118E-14
   35.5349998      -2.98321318E-13
   35.6500015      -5.72433539E-13
   35.7649994      -8.41095422E-13
   35.8800011      -1.09278103E-12
   35.9949989      -1.31595776E-12
   36.1100006      -1.49956870E-12
   36.2249985      -1.63352188E-12
   36.3400002      -1.70916829E-12
   36.4550018      -1.71974685E-12
   36.5699997      -1.66077666E-12
   36.6850014      -1.53037641E-12
   36.7999992      -1.32949413E-12
   36.9150009      -1.06203284E-12
   37.0299988      -7.34861065E-13
   37.1450005      -3.57701499E-13
   37.2599983       5.71049759E-14
   37.3750000       4.94955693E-13
   37.4900017       9.39455436E-13
   37.6049995       1.37298538E-12
   37.7200012       1.77735376E-12
   37.8349991       2.13450481E-12
   37.9500008       2.42726108E-12
   38.0649986       2.64006937E-12
   38.1800003       2.75972062E-12
   38.2949982       2.77601206E-12
   38.4099998       2.68232116E-12
   38.5250015       2.47606558E-12
   38.6399994       2.15902079E-12
   38.7550011       1.73747854E-12
   38.8699989       1.22223130E-12
   38.9850006       6.28372029E-13
   39.0999985      -2.50870339E-14
   39.2150002      -7.15772277E-13
   39.3300018      -1.41866792E-12
   39.4449997      -2.10697475E-12
   39.5600014      -2.75307967E-12
   39.6749992      -3.32960157E-12
   39.7900009      -3.81047364E-12
   39.9049988      -4.17202167E-12
   40.0200005      -4.39399515E-12
   40.1349983      -4.46050228E-12
   40.2500000      -4.36081856E-12
   40.3650017      -4.09002172E-12
   40.4799995      -3.64942711E-12
   40.5950012      -3.04679676E-12
   40.7099991      -2.29631180E-12
   40.8250008      -1.41829224E-12
   40.9399986      -4.38675734E-13
   41.0550003       6.11735272E-13
   41.1699982       1.69823704E-12
   41.2849998       2.78336490E-12
   41.4000015       3.82817259E-12
   41.5149994       4.79360822E-12
   41.6300011       5.64193223E-12
   41.7449989       6.33813271E-12
   41.8600006       6.85127736E-12
   41.9749985       7.15575906E-12
   42.0900002       7.23237876E-12
   42.2050018       7.06923279E-12
   42.3199997       6.66235730E-12
   42.4350014       6.01611079E-12
   42.5499992       5.14327253E-12
   42.6650009       4.06484308E-12
   42.7799988       2.80955792E-12
   42.8950005       1.41310704E-12
   43.0099983      -8.28965531E-14
   43.1250000      -1.63219145E-12
   43.2400017      -3.18533719E-12
   43.3549995      -4.69133369E-12
   43.4700012      -6.09934455E-12
   43.5849991      -7.36046814E-12
   43.7000008      -8.42949668E-12
   43.8149986      -9.26659964E-12
   43.9300003      -9.83888492E-12
   44.0449982      -1.01217637E-11
   44.1599998      -1.01000770E-11
   44.2750015      -9.76892959E-12
   44.3899994      -9.13419253E-12
   44.5050011      -8.21263630E-12
   44.6199989      -7.03168383E-12
   44.7350006      -5.62876265E-12
   44.8499985      -4.05026490E-12
   44.9650002      -2.35013636E-12
   45.0800018      -5.88124601E-13
   45.1949997       1.17227538E-12
   45.3100014       2.86609430E-12
   45.4249992       4.42933320E-12
   45.5400009       5.80146868E-12
   45.6549988       6.92795430E-12
   45.7700005       7.76258832E-12
   45.8849983       8.26968442E-12
   46.0000000       8.42592142E-12
   46.1150017       8.22180605E-12
   46.2299995       7.66266304E-12
   46.3450012       6.76910177E-12
   46.4599991       5.57691523E-12
   46.5750008       4.13641127E-12
   46.6899986       2.51116749E-12
   46.8050003       7.76257747E-13
   46.9199982      -9.83981885E-13
   47.0349998      -2.67857242E-12
   47.1500015      -4.21279591E-12
   47.2649994      -5.49123464E-12
   47.3800011      -6.42084649E-12
   47.4949989      -6.91391692E-12
   47.6100006      -6.89076704E-12
   47.7249985      -6.28207816E-12
   47.8400002      -5.03073451E-12
   47.9550018      -3.09308200E-12
   48.0699997      -4.39571339E-13
   48.1850014       2.94529960E-12
   48.2999992       7.06368297E-12
   48.4150009       1.19057290E-11
   48.5299988       1.74514882E-11
   48.6450005       2.36733185E-11
   48.7599983       3.05386272E-11
   48.8750000       3.80128116E-11
   48.9900017       4.60623067E-11
   49.1049995       5.46575389E-11
   49.2200012       6.37756375E-11
   49.3349991       7.34027492E-11
   49.4500008       8.35359212E-11
   49.5649986       9.41843548E-11
   49.6800003       1.05369928E-10
   49.7949982       1.17127141E-10
   49.9099998       1.29502256E-10
   50.0250015       1.42551831E-10
   50.1399994       1.56340524E-10
   50.2550011       1.70938444E-10
   50.3699989       1.86418089E-10
   50.4850006       2.02850972E-10
   50.5999985       2.20304053E-10
   50.7150002       2.38836229E-10
   50.8300018       2.58494892E-10
   50.9449997       2.79312906E-10
   51.0600014       3.01305814E-10
   51.1749992       3.24469562E-10
   51.2900009       3.48779172E-10
   51.4049988       3.74187542E-10
   51.5200005       4.00625227E-10
   51.6349983       4.28001079E-10
   51.7500000       4.56203048E-10
   51.8650017       4.85100349E-10
   51.9799995       5.14545462E-10
   52.0950012       5.44377154E-10
   52.2099991       5.74423675E-10
   52.3250008       6.04506278E-10
   52.4399986       6.34442998E-10
   52.5550003       6.64052091E-10
   52.6699982       6.93156144E-10
   52.7849998       7.21585180E-10
   52.9000015       7.49179885E-10
   53.0149994       7.75794651E-10
   53.1300011       8.01299527E-10
   53.2449989       8.25582436E-10
   53.3600006       8.48549953E-10
   53.4749985       8.70127914E-10
   53.5900002       8.90261698E-10
   53.7050018       9.08915165E-10
   53.8199997       9.26069388E-10
   53.9350014       9.41721034E-10
   54.0499992       9.55879931E-10
   54.1650009       9.68566338E-10
   54.2799988       9.79807346E-10
   54.3950005       9.89634485E-10
   54.5099983       9.98079397E-10
   54.6250000       1.00517072E-09
   54.7400017       1.01093078E-09
   54.8549995       1.01537190E-09
   54.9700012       1.01849362E-09
   55.0849991       1.02027986E-09
   55.2000008       1.02069697E-09
   55.3149986       1.01969155E-09
   55.4300003       1.01718933E-09
   55.5449982       1.01309416E-09
   55.6599998       1.00728803E-09
   55.7750015       9.99631378E-10
   55.8899994       9.89963445E-10
   56.0050011       9.78103931E-10
   56.1199989       9.63854885E-10
   56.2350006       9.47002032E-10
   56.3499985       9.27317889E-10
   56.4650002       9.04563813E-10
   56.5800018       8.78493334E-10
   56.6949997       8.48854209E-10
   56.8100014       8.15392143E-10
   56.9249992       7.77852838E-10
   57.0400009       7.35985162E-10
   57.1549988       6.89543256E-10
   57.2700005       6.38288811E-10
   57.3849983       5.81993065E-10
   57.5000000       5.20438248E-10
   57.6150017       4.53418775E-10
   57.7299995       3.80742299E-10
   57.8450012       3.02229991E-10
   57.9599991       2.17716636E-10
   58.0750008       1.27050911E-10
   58.1899986       3.00943853E-11
   58.3050003      -7.32786123E-11
   58.4199982      -1.83182372E-10
   58.5349998      -2.99720526E-10
   58.6500015      -4.22987506E-10
   58.7649994      -5.53069424E-10
   58.8800011      -6.90045965E-10
   58.9949989      -8.33991542E-10
   59.1100006      -9.84976323E-10
   59.2249985      -1.14306808E-09
   59.3400002      -1.30833411E-09
   59.4550018      -1.48084145E-09
   59.5699997      -1.66065894E-09
   59.6850014      -1.84785909E-09
   59.7999992      -2.04251860E-09
   59.9150009      -2.24472063E-09
   60.0299988      -2.45455634E-09
   60.1450005      -2.67212474E-09
   60.2599983      -2.89753621E-09
   60.3750000      -3.13091220E-09
   60.4900017      -3.37238659E-09
   60.6049995      -3.62210750E-09
   60.7200012      -3.88023746E-09
   60.8349991      -4.14695300E-09
   60.9500008      -4.42244552E-09
   61.0649986      -4.70692108E-09
   61.1800003      -5.00059949E-09
   61.2949982      -5.30371214E-09
   61.4099998      -5.61650193E-09
   61.5250015      -5.93921889E-09
   61.6399994      -6.27212060E-09
   61.7550011      -6.61546862E-09
   61.8699989      -6.96952407E-09
   61.9850006      -7.33454542E-09
   62.0999985      -7.71078490E-09
   62.2150002      -8.09848899E-09
   62.3300018      -8.49789128E-09
   62.4449997      -8.90921115E-09
   62.5600014      -9.33265643E-09
   62.6749992      -9.76841630E-09
   62.7900009      -1.02166622E-08
   62.9049988      -1.06775495E-08
   63.0200005      -1.11512160E-08
   63.1349983      -1.16377823E-08
   63.2500000      -1.21373533E-08
   63.3650017      -1.26500206E-08
   63.4799995      -1.31758631E-08
   63.5950012      -1.37149465E-08
   63.7099991      -1.42673287E-08
   63.8250008      -1.48330583E-08
   63.9399986      -1.54121782E-08
   64.0550003      -1.60047229E-08
   64.1699982      -1.66107235E-08
   64.2850037      -1.72302066E-08
   64.4000015      -1.78631936E-08
   64.5149994      -1.85097058E-08
   64.6299973      -1.91697556E-08
   64.7450027      -1.98433590E-08
   64.8600006      -2.05305248E-08
   64.9749985      -2.12312621E-08
   65.0899963      -2.19455796E-08
   65.2050018      -2.26734809E-08
   65.3199997      -2.34149820E-08
   65.4349976      -2.41700970E-08
   65.5500031      -2.49388510E-08
   65.6650009      -2.57212829E-08
   65.7799988      -2.65174371E-08
   65.8949966      -2.73273830E-08
   66.0100021      -2.81512111E-08
   66.1250000      -2.89890369E-08
   66.2399979      -2.98410043E-08
   66.3550034      -3.07072874E-08
   66.4700012      -3.15880939E-08
   66.5849991      -3.24836655E-08
   66.6999969      -3.33942793E-08
   66.8150024      -3.43202551E-08
   66.9300003      -3.52619480E-08
   67.0449982      -3.62197383E-08
   67.1600037      -3.71940523E-08
   67.2750015      -3.81853305E-08
   67.3899994      -3.91940489E-08
   67.5049973      -4.02207014E-08
   67.6200027      -4.12658032E-08
   67.7350006      -4.23298658E-08
   67.8499985      -4.34134186E-08
   67.9649963      -4.45169768E-08
   68.0800018      -4.56410447E-08
   68.1949997      -4.67861021E-08
   68.3099976      -4.79526108E-08
   68.4250031      -4.91409757E-08
   68.5400009      -5.03515665E-08
   68.6549988      -5.15846743E-08
   68.7699966      -5.28405302E-08
   68.8850021      -5.41192797E-08
   69.0000000      -5.54209834E-08
   69.1149979      -5.67455984E-08
   69.2300034      -5.80929864E-08
   69.3450012      -5.94628808E-08
   69.4599991      -6.08549016E-08
   69.5749969      -6.22685690E-08
   69.6900024      -6.37032542E-08
   69.8050003      -6.51582326E-08
   69.9199982      -6.66326585E-08
   70.0350037      -6.81255798E-08
   70.1500015      -6.96359521E-08
   70.2649994      -7.11626527E-08
   70.3799973      -7.27044807E-08
   70.4950027      -7.42601927E-08
   70.6100006      -7.58285097E-08
   70.7249985      -7.74081315E-08
   70.8399963      -7.89977648E-08
   70.9550018      -8.05961449E-08
   71.0699997      -8.22020425E-08
   71.1849976      -8.38142924E-08
   71.3000031      -8.54318074E-08
   71.4150009      -8.70535928E-08
   71.5299988      -8.86787603E-08
   71.6449966      -9.03065214E-08
   71.7600021      -9.19362293E-08
   71.8750000      -9.35673583E-08
   71.9899979      -9.51995105E-08
   72.1050034      -9.68324017E-08
   72.2200012      -9.84659039E-08
   72.3349991      -1.00099989E-07
   72.4499969      -1.01734770E-07
   72.5650024      -1.03370475E-07
   72.6800003      -1.05007416E-07
   72.7949982      -1.06646034E-07
   72.9100037      -1.08286841E-07
   73.0250015      -1.09930454E-07
   73.1399994      -1.11577542E-07
   73.2549973      -1.13228857E-07
   73.3700027      -1.14885211E-07
   73.4850006      -1.16547433E-07
   73.5999985      -1.18216434E-07
   73.7149963      -1.19893130E-07
   73.8300018      -1.21578481E-07
   73.9449997      -1.23273423E-07
   74.0599976      -1.24978911E-07
   74.1750031      -1.26695866E-07
   74.2900009      -1.28425214E-07
   74.4049988      -1.30167820E-07
   74.5199966      -1.31924494E-07
   74.6350021      -1.33695977E-07
   74.7500000      -1.35482964E-07
   74.8649979      -1.37285994E-07
   74.9800034      -1.39105580E-07
   75.0950012      -1.40942035E-07
   75.2099991      -1.42795599E-07
   75.3249969      -1.44666373E-07
   75.4400024      -1.46554285E-07
   75.5550003      -1.48459137E-07
   75.6699982      -1.50380544E-07
   75.7850037      -1.52317995E-07
   75.9000015      -1.54270793E-07
   76.0149994      -1.56238116E-07
   76.1299973      -1.58218953E-07
   76.2450027      -1.60212196E-07
   76.3600006      -1.62216566E-07
   76.4749985      -1.64230684E-07
   76.5899963      -1.66253045E-07
   76.7050018      -1.68282057E-07
   76.8199997      -1.70316000E-07
   76.9349976      -1.72353140E-07
   77.0500031      -1.74391644E-07
   77.1650009      -1.76429666E-07
   77.2799988      -1.78465285E-07
   77.3949966      -1.80496599E-07
   77.5100021      -1.82521703E-07
   77.6250000      -1.84538735E-07
   77.7399979      -1.86545805E-07
   77.8550034      -1.88541136E-07
   77.9700012      -1.90522940E-07
   78.0849991      -1.92489551E-07
   78.1999969      -1.94439366E-07
   78.3150024      -1.96370891E-07
   78.4300003      -1.98282692E-07
   78.5449982      -2.00173488E-07
   78.6600037      -2.02042102E-07
   78.7750015      -2.03887467E-07
   78.8899994      -2.05708645E-07
   79.0049973      -2.07504826E-07
   79.1200027      -2.09275299E-07
   79.2350006      -2.11019540E-07
   79.3499985      -2.12737035E-07
   79.4649963      -2.14427487E-07
   79.5800018      -2.16090655E-07
   79.6949997      -2.17726381E-07
   79.8099976      -2.19334652E-07
   79.9250031      -2.20915496E-07
   80.0400009      -2.22468998E-07
   80.1549988      -2.23995400E-07
   80.2699966      -2.25494887E-07
   80.3850021      -2.26967785E-07
   80.5000000      -2.28414407E-07
   80.6149979      -2.29835166E-07
   80.7300034      -2.31230445E-07
   80.8450012      -2.32600669E-07
   80.9599991      -2.33946324E-07
   81.0749969      -2.35267891E-07
   81.1900024      -2.36565882E-07
   81.3050003      -2.37840794E-07
   81.4199982      -2.39093197E-07
   81.5350037      -2.40323629E-07
   81.6500015      -2.41532661E-07
   81.7649994      -2.42720859E-07
   81.8799973      -2.43888792E-07
   81.9950027      -2.45037114E-07
   82.1100006      -2.46166366E-07
   82.2249985      -2.47277143E-07
   82.3399963      -2.48370043E-07
   82.4550018      -2.49445634E-07
   82.5699997      -2.50504485E-07
   82.6849976      -2.51547164E-07
   82.8000031      -2.52574154E-07
   82.9150009      -2.53585995E-07
   83.0299988      -2.54583171E-07
   83.1449966      -2.55566135E-07
   83.2600021      -2.56535316E-07
   83.3750000      -2.57491081E-07
   83.4899979      -2.58433857E-07
   83.6050034      -2.59363986E-07
   83.7200012      -2.60281752E-07
   83.8349991      -2.61187495E-07
   83.9499969      -2.62081443E-07
   84.0650024      -2.62963823E-07
   84.1800003      -2.63834835E-07
   84.2949982      -2.64694677E-07
   84.4100037      -2.65543463E-07
   84.5250015      -2.66381306E-07
   84.6399994      -2.67208264E-07
   84.7549973      -2.68024365E-07
   84.8700027      -2.68829581E-07
   84.9850006      -2.69623882E-07
   85.0999985      -2.70407099E-07
   85.2149963      -2.71179033E-07
   85.3300018      -2.71939484E-07
   85.4449997      -2.72688084E-07
   85.5599976      -2.73424519E-07
   85.6750031      -2.74148363E-07
   85.7900009      -2.74859048E-07
   85.9049988      -2.75556090E-07
   86.0199966      -2.76238893E-07
   86.1350021      -2.76906803E-07
   86.2500000      -2.77559167E-07
   86.3649979      -2.78195273E-07
   86.4800034      -2.78814440E-07
   86.5950012      -2.79415929E-07
   86.7099991      -2.79999028E-07
   86.8249969      -2.80563000E-07
   86.9400024      -2.81107106E-07
   87.0550003      -2.81630662E-07
   87.1699982      -2.82132930E-07
   87.2850037      -2.82613200E-07
   87.4000015      -2.83070790E-07
   87.5149994      -2.83505017E-07
   87.6299973      -2.83915142E-07
   87.7450027      -2.84300455E-07
   87.8600006      -2.84660217E-07
   87.9749985      -2.84993575E-07
   88.0899963      -2.85299734E-07
   88.2050018      -2.85577784E-07
   88.3199997      -2.85826786E-07
   88.4349976      -2.86045719E-07
   88.5500031      -2.86233416E-07
   88.6650009      -2.86388712E-07
   88.7799988      -2.86510300E-07
   88.8949966      -2.86596844E-07
   89.0100021      -2.86646866E-07
   89.1250000      -2.86658775E-07
   89.2399979      -2.86630922E-07
   89.3550034      -2.86561601E-07
   89.4700012      -2.86448994E-07
   89.5849991      -2.86291225E-07
   89.6999969      -2.86086333E-07
   89.8150024      -2.85832414E-07
   89.9300003      -2.85527392E-07
   90.0449982      -2.85169222E-07
   90.1600037      -2.84755856E-07
   90.2750015      -2.84285250E-07
   90.3899994      -2.83755327E-07
   90.5049973      -2.83164098E-07
   90.6200027      -2.82509546E-07
   90.7350006      -2.81789710E-07
   90.8499985      -2.81002656E-07
   90.9649963      -2.80146594E-07
   91.0800018      -2.79219677E-07
   91.1949997      -2.78220227E-07
   91.3099976      -2.77146569E-07
   91.4250031      -2.75997166E-07
   91.5400009      -2.74770514E-07
   91.6549988      -2.73465218E-07
   91.7699966      -2.72079916E-07
   91.8850021      -2.70613413E-07
   92.0000000      -2.69064458E-07
   92.1149979      -2.67431972E-07
   92.2300034      -2.65714931E-07
   92.3450012      -2.63912284E-07
   92.4599991      -2.62023121E-07
   92.5749969      -2.60046477E-07
   92.6900024      -2.57981441E-07
   92.8050003      -2.55827160E-07
   92.9199982      -2.53582726E-07
   93.0350037      -2.51247286E-07
   93.1500015      -2.48819873E-07
   93.2649994      -2.46299578E-07
   93.3799973      -2.43685491E-07
   93.4950027      -2.40976618E-07
   93.6100006      -2.38171950E-07
   93.7249985      -2.35270448E-07
   93.8399963      -2.32271006E-07
   93.9550018      -2.29172528E-07
   94.0699997      -2.25973878E-07
   94.1849976      -2.22673904E-07
   94.3000031      -2.19271413E-07
   94.4150009      -2.15765283E-07
   94.5299988      -2.12154333E-07
   94.6449966      -2.08437456E-07
   94.7600021      -2.04613556E-07
   94.8750000      -2.00681640E-07
   94.9899979      -1.96640698E-07
   95.1050034      -1.92489878E-07
   95.2200012      -1.88228341E-07
   95.3349991      -1.83855420E-07
   95.4499969      -1.79370474E-07
   95.5650024      -1.74773021E-07
   95.6800003      -1.70062705E-07
   95.7949982      -1.65239271E-07
   95.9100037      -1.60302577E-07
   96.0250015      -1.55252636E-07
   96.1399994      -1.50089534E-07
   96.2549973      -1.44813498E-07
   96.3700027      -1.39424841E-07
   96.4850006      -1.33923990E-07
   96.5999985      -1.28311441E-07
   96.7149963      -1.22587778E-07
   96.8300018      -1.16753618E-07
   96.9449997      -1.10809665E-07
   97.0599976      -1.04756623E-07
   97.1750031      -9.85952298E-08
   97.2900009      -9.23262533E-08
   97.4049988      -8.59504254E-08
   97.5199966      -7.94684709E-08
   97.6350021      -7.28810861E-08
   97.7500000      -6.61889175E-08
   97.8649979      -5.93925584E-08
   97.9800034      -5.24925490E-08
   98.0950012      -4.54893296E-08
   98.2099991      -3.83833054E-08
   98.3249969      -3.11747677E-08
   98.4400024      -2.38639455E-08