   0.00000000       0.00000000    
  0.115000002       0.00000000    
  0.230000004       0.00000000    
  0.344999999       0.00000000    
  0.460000008       0.00000000    
  0.574999988       0.00000000    
  0.689999998       0.00000000    
  0.805000007      -4.95486297E-34
  0.920000017      -1.31801046E-33
   1.03499997       4.21527396E-32
   1.14999998       5.38851877E-31
   1.26499999       3.70282601E-30
   1.38000000       1.84152035E-29
   1.49500000       7.35799068E-29
   1.61000001       2.49382168E-28
   1.72500002       7.41381291E-28
   1.84000003       1.97765503E-27
   1.95500004       4.81147721E-27
   2.06999993       1.08070423E-26
   2.18499994       2.26181444E-26
   2.29999995       4.44236665E-26
   2.41499996       8.23243469E-26
   2.52999997       1.44521512E-25
   2.64499998       2.40994147E-25
   2.75999999       3.82281723E-25
   2.87500000       5.76886634E-25
   2.99000001       8.26764390E-25
   3.10500002       1.12039114E-24
   3.22000003       1.42301159E-24
   3.33500004       1.66386720E-24
   3.45000005       1.72051904E-24
   3.56500006       1.40088473E-24
   3.68000007       4.24593240E-25
   3.79500008      -1.59287405E-24
   3.91000009      -5.14620787E-24
   4.02500010      -1.08235124E-23
   4.13999987      -1.92452195E-23
   4.25500011      -3.09267049E-23
   4.36999989      -4.60237450E-23
   4.48500013      -6.39181869E-23
   4.59999990      -8.26163361E-23
   4.71500015      -9.79754516E-23
   4.82999992      -1.02853748E-22
   4.94500017      -8.64000348E-23
   5.05999994      -3.38498132E-23
   5.17500019       7.26560710E-23
   5.28999996       2.51620123E-22
   5.40500021       5.17532336E-22
   5.51999998       8.73693063E-22
   5.63500023       1.30274282E-21
   5.75000000       1.75598408E-21
   5.86499977       2.14368379E-21
   5.98000002       2.32972895E-21
   6.09499979       2.13493701E-21
   6.21000004       1.35360009E-21
   6.32499981      -2.13019228E-22
   6.44000006      -2.70493210E-21
   6.55499983      -6.13619017E-21
   6.67000008      -1.03206331E-20
   6.78499985      -1.48054877E-20
   6.90000010      -1.88336989E-20
   7.01499987      -2.13594384E-20
   7.13000011      -2.11406313E-20
   7.24499989      -1.69252769E-20
   7.36000013      -7.73376553E-21
   7.47499990       6.78261607E-21
   7.59000015       2.59543346E-20
   7.70499992       4.77537992E-20
   7.82000017       6.86037751E-20
   7.93499994       8.34465295E-20
   8.05000019       8.61776537E-20
   8.16499996       7.05131083E-20
   8.27999973       3.12919259E-20
   8.39500046      -3.38765971E-20
   8.51000023      -1.22825581E-19
   8.62500000      -2.27222792E-19
   8.73999977      -3.31556685E-19
   8.85499954      -4.13176613E-19
   8.97000027      -4.43816416E-19
   9.08500004      -3.92901795E-19
   9.19999981      -2.32702786E-19
   9.31499958       5.49503319E-20
   9.43000031       4.71080496E-19
   9.54500008       9.92235818E-19
   9.65999985       1.56492098E-18
   9.77499962       2.10351802E-18
   9.89000034       2.49341167E-18
   10.0050001       2.60069969E-18
   10.1199999       2.28916506E-18
   10.2349997       1.44412583E-18
   10.3500004       1.42724602E-21
   10.4650002      -2.02166643E-18
   10.5799999      -4.49833638E-18
   10.6949997      -7.17258814E-18
   10.8100004      -9.65436242E-18
   10.9250002      -1.14351516E-17
   11.0400000      -1.19284019E-17
   11.1549997      -1.05362801E-17
   11.2700005      -6.74066710E-18
   11.3850002      -2.11775969E-19
   11.5000000       9.07692749E-18
   11.6149998       2.07431007E-17
   11.7299995       3.39178396E-17
   11.8450003       4.72156216E-17
   11.9600000       5.87699451E-17
   12.0749998       6.63479386E-17
   12.1899996       6.75494482E-17
   12.3050003       6.00851622E-17
   12.4200001       4.21163145E-17
   12.5349998       1.26250468E-17
   12.6499996      -2.82267939E-17
   12.7650003      -7.88012486E-17
   12.8800001      -1.35804475E-16
   12.9949999      -1.94274458E-16
   13.1099997      -2.47776672E-16
   13.2250004      -2.88829579E-16
   13.3400002      -3.09557164E-16
   13.4549999      -3.02536505E-16
   13.5699997      -2.61777041E-16
   13.6850004      -1.83739710E-16
   13.8000002      -6.82817280E-17
   13.9150000       8.06004259E-17
   14.0299997       2.54355709E-16
   14.1450005       4.39901373E-16
   14.2600002       6.20161366E-16
   14.3750000       7.75152831E-16
   14.4899998       8.83593695E-16
   14.6049995       9.24943038E-16
   14.7200003       8.81720641E-16
   14.8350000       7.41899641E-16
   14.9499998       5.01124650E-16
   15.0649996       1.64489616E-16
   15.1800003      -2.52379449E-16
   15.2950001      -7.23157185E-16
   15.4099998      -1.21171875E-15
   15.5249996      -1.67416846E-15
   15.6400003      -2.06195200E-15
   15.7550001      -2.32588302E-15
   15.8699999      -2.42081063E-15
   15.9849997      -2.31054283E-15
   16.1000004      -1.97257732E-15
   16.2150002      -1.40215081E-15
   16.3299999      -6.15128561E-16
   16.4449997       3.50687099E-16
   16.5599995       1.43614711E-15
   16.6749992       2.56341329E-15
   16.7900009       3.64067593E-15
   16.9050007       4.56872928E-15
   17.0200005       5.24900303E-15
   17.1350002       5.59247828E-15
   17.2500000       5.52876701E-15
   17.3649998       5.01455406E-15
   17.4799995       4.04057586E-15
   17.5949993       2.63635723E-15
   17.7099991       8.72065365E-16
   17.8250008      -1.14298234E-15
   17.9400005      -3.26534865E-15
   18.0550003      -5.32596572E-15
   18.1700001      -7.14167613E-15
   18.2849998      -8.52913897E-15
   18.3999996      -9.32014746E-15
   18.5149994      -9.37719429E-15
   18.6299992      -8.60802823E-15
   18.7450008      -6.97790951E-15
   18.8600006      -4.51836851E-15
   18.9750004      -1.33147258E-15
   19.0900002       2.41110893E-15
   19.2049999       6.47456823E-15
   19.3199997       1.05728863E-14
   19.4349995       1.43856705E-14
   19.5499992       1.75789881E-14
   19.6650009       1.98288533E-14
   19.7800007       2.08457925E-14
   19.8950005       2.03986777E-14
   20.0100002       1.83360610E-14
   20.1250000       1.46032529E-14
   20.2399998       9.25368164E-15
   20.3549995       2.45343241E-15
   20.4699993      -5.52173155E-15
   20.5849991      -1.42969539E-14
   20.7000008      -2.34160496E-14
   20.8150005      -3.23654847E-14
   20.9300003      -4.06031240E-14
   21.0450001      -4.75898380E-14
   21.1599998      -5.28219368E-14
   21.2749996      -5.58621041E-14
   21.3899994      -5.63667900E-14
   21.5049992      -5.41080581E-14
   21.6200008      -4.89883877E-14
   21.7350006      -4.10473793E-14
   21.8500004      -3.04600332E-14
   21.9650002      -1.75268024E-14
   22.0799999      -2.65635398E-15
   22.1949997       1.36573704E-14
   22.3099995       3.08619165E-14
   22.4249992       4.83744006E-14
   22.5400009       6.56086445E-14
   22.6550007       8.19989828E-14
   22.7700005       9.70186930E-14
   22.8850002       1.10191797E-13
   23.0000000       1.21097549E-13
   23.1149998       1.29367722E-13
   23.2299995       1.34678130E-13
   23.3449993       1.36736122E-13
   23.4599991       1.35266920E-13
   23.5750008       1.30002156E-13
   23.6900005       1.20673694E-13
   23.8050003       1.07016209E-13
   23.9200001       8.87806742E-14
   24.0349998       6.57604329E-14
   24.1499996       3.78298941E-14
   24.2649994       4.99408974E-15
   24.3799992      -3.25538716E-14
   24.4950008      -7.43727250E-14
   24.6100006      -1.19716384E-13
   24.7250004      -1.67488094E-13
   24.8400002      -2.16212952E-13
   24.9549999      -2.64035918E-13
   25.0699997      -3.08751614E-13
   25.1849995      -3.47869628E-13
   25.2999992      -3.78717375E-13
   25.4150009      -3.98578252E-13
   25.5300007      -4.04860715E-13
   25.6450005      -3.95289351E-13
   25.7600002      -3.68106831E-13
   25.8750000      -3.22272536E-13
   25.9899998      -2.57642459E-13
   26.1049995      -1.75114521E-13
   26.2199993      -7.67238988E-14
   26.3349991       3.43240214E-14
   26.4500008       1.53693613E-13
   26.5650005       2.76036355E-13
   26.6800003       3.95186325E-13
   26.7950001       5.04428476E-13
   26.9099998       5.96829335E-13
   27.0249996       6.65614157E-13
   27.1399994       7.04571275E-13
   27.2549992       7.08460688E-13
   27.3700008       6.73403282E-13
   27.4850006       5.97225448E-13
   27.6000004       4.79737886E-13
   27.7150002       3.22927422E-13
   27.8299999       1.31047300E-13
   27.9449997      -8.94048561E-14
   28.0599995      -3.29825604E-13
   28.1749992      -5.79759710E-13
   28.2900009      -8.27262141E-13
   28.4050007      -1.05935508E-12
   28.5200005      -1.26256286E-12
   28.6350002      -1.42350205E-12
   28.7500000      -1.52950320E-12
   28.8649998      -1.56923801E-12
   28.9799995      -1.53332371E-12
   29.0949993      -1.41487798E-12
   29.2099991      -1.21000042E-12
   29.3250008      -9.18154008E-13
   29.4400005      -5.42429328E-13
   29.5550003      -8.96721120E-14
   29.6700001       4.29535232E-13
   29.7849998       1.00104777E-12
   29.8999996       1.60748617E-12
   30.0149994       2.22871461E-12
   30.1299992       2.84245717E-12
   30.2450008       3.42503283E-12
   30.3600006       3.95218537E-12
   30.4750004       4.39997691E-12
   30.5900002       4.74570687E-12
   30.7049999       4.96882657E-12
   30.8199997       5.05179709E-12
   30.9349995       4.98085991E-12
   31.0499992       4.74667874E-12
   31.1650009       4.34482398E-12
   31.2800007       3.77606887E-12
   31.3950005       3.04648906E-12
   31.5100002       2.16735484E-12
   31.6250000       1.15482515E-12
   31.7399998       2.94535074E-14
   31.8549995      -1.18445878E-12
   31.9699993      -2.45963297E-12
   32.0849991      -3.76666363E-12
   32.2000008      -5.07490447E-12
   32.3149986      -6.35334580E-12
   32.4300003      -7.57144000E-12
   32.5449982      -8.69983599E-12
   32.6599998      -9.71100284E-12
   32.7750015      -1.05797194E-11
   32.8899994      -1.12834238E-11
   33.0050011      -1.18024297E-11
   33.1199989      -1.21200307E-11
   33.2350006      -1.22225112E-11
   33.3499985      -1.20990978E-11
   33.4650002      -1.17418818E-11
   33.5800018      -1.11457614E-11
   33.6949997      -1.03084069E-11
   33.8100014      -9.23029708E-12
   33.9249992      -7.91483545E-12
   34.0400009      -6.36853200E-12
   34.1549988      -4.60126685E-12
   34.2700005      -2.62660727E-12
   34.3849983      -4.62145621E-13
   34.5000000       1.87017762E-12
   34.6150017       4.34378488E-12
   34.7299995       6.92727820E-12
   34.8450012       9.58438103E-12
   34.9599991       1.22740273E-11
   35.0750008       1.49506484E-11
   35.1899986       1.75646459E-11
   35.3050003       2.00630883E-11
   35.4199982       2.23905686E-11
   35.5349998       2.44902640E-11
   35.6500015       2.63051213E-11
   35.7649994       2.77791627E-11
   35.8800011       2.88588632E-11
   35.9949989       2.94945492E-11
   36.1100006       2.96417717E-11
   36.2249985       2.92626375E-11
   36.3400002       2.83270265E-11
   36.4550018       2.68136780E-11
   36.5699997       2.47111446E-11
   36.6850014       2.20185259E-11
   36.7999992       1.87460325E-11
   36.9150009       1.49153259E-11
   37.0299988       1.05596590E-11
   37.1450005       5.72379904E-12
   37.2599983       4.63720533E-13
   37.3750000      -5.15388513E-12
   37.4900017      -1.10523188E-11
   37.6049995      -1.71457744E-11
   37.7200012      -2.33403748E-11
   37.8349991      -2.95354192E-11
   37.9500008      -3.56247150E-11
   38.0649986      -4.14980862E-11
   38.1800003      -4.70428904E-11
   38.2949982      -5.21457079E-11
   38.4099998      -5.66940141E-11
   38.5250015      -6.05778969E-11
   38.6399994      -6.36918018E-11
   38.7550011      -6.59362911E-11
   38.8699989      -6.72197367E-11
   38.9850006      -6.74600792E-11
   39.0999985      -6.65865002E-11
   39.2150002      -6.45411155E-11
   39.3300018      -6.12806125E-11
   39.4449997      -5.67778706E-11
   39.5600014      -5.10235396E-11
   39.6749992      -4.40275524E-11
   39.7900009      -3.58205028E-11
   39.9049988      -2.64549441E-11
   40.0200005      -1.60064323E-11
   40.1349983      -4.57436649E-12
   40.2500000       7.71755403E-12
   40.3650017       2.07212615E-11
   40.4799995       3.42647230E-11
   40.5950012       4.81529747E-11
   40.7099991       6.21697555E-11
   40.8250008       7.60798299E-11
   40.9399986       8.96320310E-11
   41.0550003       1.02563028E-10
   41.1699982       1.14601786E-10
   41.2849998       1.25474658E-10
   41.4000015       1.34910930E-10
   41.5149994       1.42648865E-10
   41.6300011       1.48441967E-10
   41.7449989       1.52065194E-10
   41.8600006       1.53321203E-10
   41.9749985       1.52046084E-10
   42.0900002       1.48114729E-10
   42.2050018       1.41445397E-10
   42.3199997       1.32003422E-10
   42.4350014       1.19803931E-10
   42.5499992       1.04913543E-10
   42.6650009       8.74508382E-11
   42.7799988       6.75857564E-11
   42.8950005       4.55379102E-11
   43.0099983       2.15738330E-11
   43.1250000      -3.99669100E-12
   43.2400017      -3.08249815E-11
   43.3549995      -5.85284876E-11
   43.4700012      -8.66962752E-11
   43.5849991      -1.14894712E-10
   43.7000008      -1.42673248E-10
   43.8149986      -1.69570052E-10
   43.9300003      -1.95117436E-10
   44.0449982      -2.18846996E-10
   44.1599998      -2.40294035E-10
   44.2750015      -2.59001681E-10
   44.3899994      -2.74524264E-10
   44.5050011      -2.86429908E-10
   44.6199989      -2.94302915E-10
   44.7350006      -2.97745106E-10
   44.8499985      -2.96377034E-10
   44.9650002      -2.89838736E-10
   45.0800018      -2.77789958E-10
   45.1949997      -2.59910621E-10
   45.3100014      -2.35901049E-10
   45.4249992      -2.05482326E-10
   45.5400009      -1.68397005E-10
   45.6549988      -1.24410218E-10
   45.7700005      -7.33108643E-11
   45.8849983      -1.49137074E-11
   46.0000000       5.09382397E-11
   46.1150017       1.24371111E-10
   46.2299995       2.05476761E-10
   46.3450012       2.94309854E-10
   46.4599991       3.90883770E-10
   46.5750008       4.95167962E-10
   46.6899986       6.07084605E-10
   46.8050003       7.26506022E-10
   46.9199982       8.53253024E-10
   47.0349998       9.87093629E-10
   47.1500015       1.12774323E-09
   47.2649994       1.27486532E-09
   47.3800011       1.42807333E-09
   47.4949989       1.58693436E-09
   47.6100006       1.75097237E-09
   47.7249985       1.91967442E-09
   47.8400002       2.09249529E-09
   47.9550018       2.26886465E-09
   48.0699997       2.44819431E-09
   48.1850014       2.62988520E-09
   48.2999992       2.81333423E-09
   48.4150009       2.99794145E-09
   48.5299988       3.18311755E-09
   48.6450005       3.36828920E-09
   48.7599983       3.55290308E-09
   48.8750000       3.73643294E-09
   48.9900017       3.91837895E-09
   49.1049995       4.09827328E-09
   49.2200012       4.27567715E-09
   49.3349991       4.45018333E-09
   49.4500008       4.62141037E-09
   49.5649986       4.78900297E-09
   49.6800003       4.95262364E-09
   49.7949982       5.11195042E-09
   49.9099998       5.26666799E-09
   50.0250015       5.41646328E-09
   50.1399994       5.56101520E-09
   50.2550011       5.69999115E-09
   50.3699989       5.83303761E-09
   50.4850006       5.95977623E-09
   50.5999985       6.07979667E-09
   50.7150002       6.19265306E-09
   50.8300018       6.29786134E-09
   50.9449997       6.39489883E-09
   51.0600014       6.48319931E-09
   51.1749992       6.56215837E-09
   51.2900009       6.63113386E-09
   51.4049988       6.68944722E-09
   51.5200005       6.73638878E-09
   51.6349983       6.77122136E-09
   51.7500000       6.79318379E-09
   51.8650017       6.80149670E-09
   51.9799995       6.79536605E-09
   52.0950012       6.77398582E-09
   52.2099991       6.73654332E-09
   52.3250008       6.68222144E-09
   52.4399986       6.61020083E-09
   52.5550003       6.51966214E-09
   52.6699982       6.40978470E-09
   52.7849998       6.27975005E-09
   52.9000015       6.12874196E-09
   53.0149994       5.95594463E-09
   53.1300011       5.76054582E-09
   53.2449989       5.54173507E-09
   53.3600006       5.29870281E-09
   53.4749985       5.03064435E-09
   53.5900002       4.73675810E-09
   53.7050018       4.41624737E-09
   53.8199997       4.06832257E-09
   53.9350014       3.69220032E-09
   54.0499992       3.28710992E-09
   54.1650009       2.85228907E-09
   54.2799988       2.38699016E-09
   54.3950005       1.89047955E-09
   54.5099983       1.36203915E-09
   54.6250000       8.00967681E-10
   54.7400017       2.06579337E-10
   54.8549995      -4.21795238E-10
   54.9700012      -1.08481080E-09
   55.0849991      -1.78310877E-09
   55.2000008      -2.51732168E-09
   55.3149986      -3.28807026E-09
   55.4300003      -4.09597511E-09
   55.5449982      -4.94165331E-09
   55.6599998      -5.82572746E-09
   55.7750015      -6.74882772E-09
   55.8899994      -7.71160025E-09
   56.0050011      -8.71470451E-09
   56.1199989      -9.75882752E-09
   56.2350006      -1.08446807E-08
   56.3499985      -1.19730066E-08
   56.4650002      -1.31445805E-08
   56.5800018      -1.43602099E-08
   56.6949997      -1.56207438E-08
   56.8100014      -1.69270642E-08
   56.9249992      -1.82800957E-08
   57.0400009      -1.96807974E-08
   57.1549988      -2.11301643E-08
   57.2700005      -2.26292300E-08
   57.3849983      -2.41790516E-08
   57.5000000      -2.57807251E-08
   57.6150017      -2.74353731E-08
   57.7299995      -2.91441395E-08
   57.8450012      -3.09082004E-08
   57.9599991      -3.27287388E-08
   58.0750008      -3.46069662E-08
   58.1899986      -3.65441082E-08
   58.3050003      -3.85413941E-08
   58.4199982      -4.06000602E-08
   58.5349998      -4.27213429E-08
   58.6500015      -4.49064750E-08
   58.7649994      -4.71566821E-08
   58.8800011      -4.94731545E-08
   58.9949989      -5.18570609E-08
   59.1100006      -5.43095204E-08
   59.2249985      -5.68315990E-08
   59.3400002      -5.94243019E-08
   59.4550018      -6.20885388E-08
   59.5699997      -6.48251657E-08
   59.6850014      -6.76348790E-08
   59.7999992      -7.05182899E-08
   59.9150009      -7.34758459E-08
   60.0299988      -7.65078951E-08
   60.1450005      -7.96146082E-08
   60.2599983      -8.27959923E-08
   60.3750000      -8.60519194E-08
   60.4900017      -8.93820911E-08
   60.6049995      -9.27860384E-08
   60.7200012      -9.62631432E-08
   60.8349991      -9.98126382E-08
   60.9500008      -1.03433621E-07
   61.0649986      -1.07125054E-07
   61.1800003      -1.10885793E-07
   61.2949982      -1.14714595E-07
   61.4099998      -1.18610139E-07
   61.5250015      -1.22571052E-07
   61.6399994      -1.26595907E-07
   61.7550011      -1.30683247E-07
   61.8699989      -1.34831666E-07
   61.9850006      -1.39039713E-07
   62.0999985      -1.43306025E-07
   62.2150002      -1.47629279E-07
   62.3300018      -1.52008212E-07
   62.4449997      -1.56441686E-07
   62.5600014      -1.60928650E-07
   62.6749992      -1.65468208E-07
   62.7900009      -1.70059550E-07
   62.9049988      -1.74702052E-07
   63.0200005      -1.79395229E-07
   63.1349983      -1.84138813E-07
   63.2500000      -1.88932660E-07
   63.3650017      -1.93776856E-07
   63.4799995      -1.98671657E-07
   63.5950012      -2.03617489E-07
   63.7099991      -2.08615020E-07
   63.8250008      -2.13665047E-07
   63.9399986      -2.18768577E-07
   64.0550003      -2.23926790E-07
   64.1699982      -2.29141051E-07
   64.2850037      -2.34412838E-07
   64.4000015      -2.39743798E-07
   64.5149994      -2.45135652E-07
   64.6299973      -2.50590261E-07
   64.7450027      -2.56109558E-07
   64.8600006      -2.61695590E-07
   64.9749985      -2.67350345E-07
   65.0899963      -2.73075926E-07
   65.2050018      -2.78874353E-07
   65.3199997      -2.84747784E-07
   65.4349976      -2.90698154E-07
   65.5500031      -2.96727478E-07
   65.6650009      -3.02837606E-07
   65.7799988      -3.09030298E-07
   65.8949966      -3.15307290E-07
   66.0100021      -3.21670058E-07
   66.1250000      -3.28119938E-07
   66.2399979      -3.34658182E-07
   66.3550034      -3.41285755E-07
   66.4700012      -3.48003425E-07
   66.5849991      -3.54811817E-07
   66.6999969      -3.61711216E-07
   66.8150024      -3.68701677E-07
   66.9300003      -3.75782975E-07
   67.0449982      -3.82954596E-07
   67.1600037      -3.90215774E-07
   67.2750015      -3.97565401E-07
   67.3899994      -4.05002055E-07
   67.5049973      -4.12524003E-07
   67.6200027      -4.20129254E-07
   67.7350006      -4.27815309E-07
   67.8499985      -4.35579693E-07
   67.9649963      -4.43419310E-07
   68.0800018      -4.51331005E-07
   68.1949997      -4.59311281E-07
   68.3099976      -4.67356472E-07
   68.4250031      -4.75462684E-07
   68.5400009      -4.83625854E-07
   68.6549988      -4.91841718E-07
   68.7699966      -5.00106012E-07
   68.8850021      -5.08414303E-07
   69.0000000      -5.16761929E-07
   69.1149979      -5.25144515E-07
   69.2300034      -5.33557397E-07
   69.3450012      -5.41995860E-07
   69.4599991      -5.50455525E-07
   69.5749969      -5.58931731E-07
   69.6900024      -5.67420102E-07
   69.8050003      -5.75916204E-07
   69.9199982      -5.84415773E-07
   70.0350037      -5.92914603E-07
   70.1500015      -6.01408772E-07
   70.2649994      -6.09894471E-07
   70.3799973      -6.18367892E-07
   70.4950027      -6.26825681E-07
   70.6100006      -6.35264371E-07
   70.7249985      -6.43681062E-07
   70.8399963      -6.52072742E-07
   70.9550018      -6.60436797E-07
   71.0699997      -6.68770781E-07
   71.1849976      -6.77072478E-07
   71.3000031      -6.85339842E-07
   71.4150009      -6.93571110E-07
   71.5299988      -7.01764691E-07
   71.6449966      -7.09919277E-07
   71.7600021      -7.18033846E-07
   71.8750000      -7.26107260E-07
   71.9899979      -7.34139007E-07
   72.1050034      -7.42128464E-07
   72.2200012      -7.50075287E-07
   72.3349991      -7.57979421E-07
   72.4499969      -7.65840809E-07
   72.5650024      -7.73659451E-07
   72.6800003      -7.81435574E-07
   72.7949982      -7.89169462E-07
   72.9100037      -7.96861343E-07
   73.0250015      -8.04511558E-07
   73.1399994      -8.12120390E-07
   73.2549973      -8.19688069E-07
   73.3700027      -8.27214762E-07
   73.4850006      -8.34700643E-07
   73.5999985      -8.42145766E-07
   73.7149963      -8.49549963E-07
   73.8300018      -8.56913175E-07
   73.9449997      -8.64234948E-07
   74.0599976      -8.71514828E-07
   74.1750031      -8.78752132E-07
   74.2900009      -8.85945951E-07
   74.4049988      -8.93095546E-07
   74.5199966      -9.00199552E-07
   74.6350021      -9.07256776E-07
   74.7500000      -9.14265627E-07
   74.8649979      -9.21224512E-07
   74.9800034      -9.28131556E-07
   75.0950012      -9.34984598E-07
   75.2099991      -9.41781650E-07
   75.3249969      -9.48520324E-07
   75.4400024      -9.55198061E-07
   75.5550003      -9.61812361E-07
   75.6699982      -9.68360382E-07
   75.7850037      -9.74839395E-07
   75.9000015      -9.81246444E-07
   76.0149994      -9.87578460E-07
   76.1299973      -9.93832487E-07
   76.2450027      -1.00000534E-06
   76.3600006      -1.00609407E-06
   76.4749985      -1.01209548E-06
   76.5899963      -1.01800651E-06
   76.7050018      -1.02382410E-06
   76.8199997      -1.02954516E-06
   76.9349976      -1.03516686E-06
   77.0500031      -1.04068624E-06
   77.1650009      -1.04610058E-06
   77.2799988      -1.05140691E-06
   77.3949966      -1.05660263E-06
   77.5100021      -1.06168534E-06
   77.6250000      -1.06665243E-06
   77.7399979      -1.07150163E-06
   77.8550034      -1.07623089E-06
   77.9700012      -1.08083816E-06
   78.0849991      -1.08532163E-06
   78.1999969      -1.08967947E-06
   78.3150024      -1.09391044E-06
   78.4300003      -1.09801294E-06
   78.5449982      -1.10198596E-06
   78.6600037      -1.10582835E-06
   78.7750015      -1.10953931E-06
   78.8899994      -1.11311829E-06
   79.0049973      -1.11656482E-06
   79.1200027      -1.11987845E-06
   79.2350006      -1.12305906E-06
   79.3499985      -1.12610678E-06
   79.4649963      -1.12902160E-06
   79.5800018      -1.13180397E-06
   79.6949997      -1.13445412E-06
   79.8099976      -1.13697274E-06
   79.9250031      -1.13936017E-06
   80.0400009      -1.14161719E-06
   80.1549988      -1.14374416E-06
   80.2699966      -1.14574209E-06
   80.3850021      -1.14761144E-06
   80.5000000      -1.14935278E-06
   80.6149979      -1.15096657E-06
   80.7300034      -1.15245336E-06
   80.8450012      -1.15381363E-06
   80.9599991      -1.15504758E-06
   81.0749969      -1.15615546E-06
   81.1900024      -1.15713760E-06
   81.3050003      -1.15799412E-06
   81.4199982      -1.15872501E-06
   81.5350037      -1.15933040E-06
   81.6500015      -1.15981027E-06
   81.7649994      -1.16016440E-06
   81.8799973      -1.16039291E-06
   81.9950027      -1.16049546E-06
   82.1100006      -1.16047192E-06
   82.2249985      -1.16032197E-06
   82.3399963      -1.16004526E-06
   82.4550018      -1.15964133E-06
   82.5699997      -1.15910973E-06
   82.6849976      -1.15844966E-06
   82.8000031      -1.15766079E-06
   82.9150009      -1.15674220E-06
   83.0299988      -1.15569321E-06
   83.1449966      -1.15451292E-06
   83.2600021      -1.15320029E-06
   83.3750000      -1.15175465E-06
   83.4899979      -1.15017463E-06
   83.6050034      -1.14845932E-06
   83.7200012      -1.14660759E-06
   83.8349991      -1.14461830E-06
   83.9499969      -1.14249031E-06
   84.0650024      -1.14022248E-06
   84.1800003      -1.13781368E-06
   84.2949982      -1.13526289E-06
   84.4100037      -1.13256908E-06
   84.5250015      -1.12973134E-06
   84.6399994      -1.12674877E-06
   84.7549973      -1.12362079E-06
   84.8700027      -1.12034684E-06
   84.9850006      -1.11692634E-06
   85.0999985      -1.11335896E-06
   85.2149963      -1.10964470E-06
   85.3300018      -1.10578344E-06
   85.4449997      -1.10177518E-06
   85.5599976      -1.09762038E-06
   85.6750031      -1.09331938E-06
   85.7900009      -1.08887275E-06
   85.9049988      -1.08428105E-06
   86.0199966      -1.07954520E-06
   86.1350021      -1.07466599E-06
   86.2500000      -1.06964444E-06
   86.3649979      -1.06448181E-06
   86.4800034      -1.05917911E-06
   86.5950012      -1.05373783E-06
   86.7099991      -1.04815933E-06
   86.8249969      -1.04244509E-06
   86.9400024      -1.03659693E-06
   87.0550003      -1.03061654E-06
   87.1699982      -1.02450565E-06
   87.2850037      -1.01826606E-06
   87.4000015      -1.01189960E-06
   87.5149994      -1.00540831E-06
   87.6299973      -9.98794349E-07
   87.7450027      -9.92059540E-07
   87.8600006      -9.85205816E-07
   87.9749985      -9.78235221E-07
   88.0899963      -9.71149689E-07
   88.2050018      -9.63951038E-07
   88.3199997      -9.56641088E-07
   88.4349976      -9.49221715E-07
   88.5500031      -9.41694452E-07
   88.6650009      -9.34060893E-07
   88.7799988      -9.26322684E-07
   88.8949966      -9.18481078E-07
   89.0100021      -9.10537494E-07
   89.1250000      -9.02493127E-07
   89.2399979      -8.94349114E-07
   89.3550034      -8.86106420E-07
   89.4700012      -8.77765785E-07
   89.5849991      -8.69328062E-07
   89.6999969      -8.60793762E-07
   89.8150024      -8.52163453E-07
   89.9300003      -8.43437306E-07
   90.0449982      -8.34615832E-07
   90.1600037      -8.25698919E-07
   90.2750015      -8.16686679E-07
   90.3899994      -8.07579113E-07
   90.5049973      -7.98375993E-07
   90.6200027      -7.89077092E-07
   90.7350006      -7.79682239E-07
   90.8499985      -7.70191036E-07
   90.9649963      -7.60603143E-07
   91.0800018      -7.50918218E-07
   91.1949997      -7.41135750E-07
   91.3099976      -7.31255454E-07
   91.4250031      -7.21276820E-07
   91.5400009      -7.11199391E-07
   91.6549988      -7.01022827E-07
   91.7699966      -6.90746845E-07
   91.8850021      -6.80371215E-07
   92.0000000      -6.69895826E-07
   92.1149979      -6.59320563E-07
   92.2300034      -6.48645482E-07
   92.3450012      -6.37870869E-07
   92.4599991      -6.26996950E-07
   92.5749969      -6.16024352E-07
   92.6900024      -6.04953641E-07
   92.8050003      -5.93785728E-07
   92.9199982      -5.82521523E-07
   93.0350037      -5.71162332E-07
   93.1500015      -5.59709406E-07
   93.2649994      -5.48164280E-07
   93.3799973      -5.36528432E-07
   93.4950027      -5.24803681E-07
   93.6100006      -5.12991789E-07
   93.7249985      -5.01094746E-07
   93.8399963      -4.89114484E-07
   93.9550018      -4.77053163E-07
   94.0699997      -4.64912858E-07
   94.1849976      -4.52695758E-07
   94.3000031      -4.40404023E-07
   94.4150009      -4.28039840E-07
   94.5299988      -4.15605427E-07
   94.6449966      -4.03102774E-07
   94.7600021      -3.90534098E-07
   94.8750000      -3.77901443E-07
   94.9899979      -3.65206830E-07
   95.1050034      -3.52452247E-07
   95.2200012      -3.39639627E-07
   95.3349991      -3.26770987E-07
   95.4499969      -3.13848119E-07
   95.5650024      -3.00872927E-07
   95.6800003      -2.87847229E-07
   95.7949982      -2.74772816E-07
   95.9100037      -2.61651394E-07
   96.0250015      -2.48484753E-07
   96.1399994      -2.35274641E-07
   96.2549973      -2.22022678E-07
   96.3700027      -2.08730597E-07
   96.4850006      -1.95400062E-07
   96.5999985      -1.82032750E-07
   96.7149963      -1.68630208E-07
   96.8300018      -1.55194115E-07
   96.9449997      -1.41726019E-07
   97.0599976      -1.28227398E-07
   97.1750031      -1.14699766E-07
   97.2900009      -1.01144586E-07
   97.4049988      -8.75630732E-08
   97.5199966      -7.39566630E-08
   97.6350021      -6.03266699E-08
   97.7500000      -4.66743906E-08
   97.8649979      -3.30010792E-08
   97.9800034      -1.93080751E-08
   98.0950012      -5.59664626E-09
   98.2099991       8.13178680E-09
   98.3249969       2.18757901E-08
   98.4400024       3.56339100E-08