   0.00000000       0.00000000    
  0.115000002       0.00000000    
  0.230000004       0.00000000    
  0.344999999       0.00000000    
  0.460000008       0.00000000    
  0.574999988       0.00000000    
  0.689999998       0.00000000    
  0.805000007      -1.80038755E-35
  0.920000017       9.84801249E-34
   1.03499997       1.71146394E-32
   1.14999998       1.39363730E-31
   1.26499999       7.56056102E-31
   1.38000000       3.09598618E-30
   1.49500000       1.01754944E-29
   1.61000001       2.77324704E-29
   1.72500002       6.35699400E-29
   1.84000003       1.22090754E-28
   1.95500004       1.89949307E-28
   2.06999993       2.11686062E-28
   2.18499994       6.57822678E-29
   2.29999995      -4.22715141E-28
   2.41499996      -1.35348338E-27
   2.52999997      -2.36909182E-27
   2.64499998      -1.82486927E-27
   2.75999999       4.71393502E-27
   2.87500000       2.68336676E-26
   2.99000001       8.25270349E-26
   3.10500002       2.02083114E-25
   3.22000003       4.31918503E-25
   3.33500004       8.37133276E-25
   3.45000005       1.50106948E-24
   3.56500006       2.51980494E-24
   3.68000007       3.98951138E-24
   3.79500008       5.98500367E-24
   3.91000009       8.52868764E-24
   4.02500010       1.15502418E-23
   4.13999987       1.48386298E-23
   4.25500011       1.79890926E-23
   4.36999989       2.03484667E-23
   4.48500013       2.09628631E-23
   4.59999990       1.85332946E-23
   4.71500015       1.13877909E-23
   4.82999992      -2.51373998E-24
   4.94500017      -2.55149045E-23
   5.05999994      -6.00949315E-23
   5.17500019      -1.08535219E-22
   5.28999996      -1.72346317E-22
   5.40500021      -2.51381067E-22
   5.51999998      -3.42593229E-22
   5.63500023      -4.38472721E-22
   5.75000000      -5.25320879E-22
   5.86499977      -5.81708455E-22
   5.98000002      -5.77678777E-22
   6.09499979      -4.75469263E-22
   6.21000004      -2.32648611E-22
   6.32499981       1.91468065E-22
   6.44000006       8.25591834E-22
   6.55499983       1.67256031E-21
   6.67000008       2.69298665E-21
   6.78499985       3.78909749E-21
   6.90000010       4.79297447E-21
   7.01499987       5.46482809E-21
   7.13000011       5.50769406E-21
   7.24499989       4.60454127E-21
   7.36000013       2.48161777E-21
   7.47499990      -1.00235933E-21
   7.59000015      -5.74803648E-21
   7.70499992      -1.13032938E-20
   7.82000017      -1.67709544E-20
   7.93499994      -2.07679574E-20
   8.05000019      -2.14720319E-20
   8.16499996      -1.67904594E-20
   8.27999973      -4.67565174E-21
   8.39500046       1.64070628E-20
   8.51000023       4.68837829E-20
   8.62500000       8.54101270E-20
   8.73999977       1.28245733E-19
   8.85499954       1.68804790E-19
   8.97000027       1.97547326E-19
   9.08500004       2.02377350E-19
   9.19999981       1.69684845E-19
   9.31499958       8.61001507E-20
   9.43000031      -5.90776142E-20
   9.54500008      -2.70956994E-19
   9.65999985      -5.45972343E-19
   9.77499962      -8.69136247E-19
   9.89000034      -1.21223660E-18
   10.0050001      -1.53364063E-18
   10.1199999      -1.78031974E-18
   10.2349997      -1.89253279E-18
   10.3500004      -1.81129827E-18
   10.4650002      -1.48835993E-18
   10.5799999      -8.97819355E-19
   10.6949997      -4.80868654E-20
   10.8100004       1.00770937E-18
   10.9250002       2.16501394E-18
   11.0400000       3.26708859E-18
   11.1549997       4.11220103E-18
   11.2700005       4.47008651E-18
   11.3850002       4.10798365E-18
   11.5000000       2.82518079E-18
   11.6149998       4.93441721E-19
   11.7299995      -2.90088539E-18
   11.8450003      -7.21863894E-18
   11.9600000      -1.21399392E-17
   12.0749998      -1.71531898E-17
   12.1899996      -2.15668849E-17
   12.3050003      -2.45483896E-17
   12.4200001      -2.51911486E-17
   12.5349998      -2.26084393E-17
   12.6499996      -1.60477191E-17
   12.7650003      -5.01592770E-18
   12.8800001       1.05976535E-17
   12.9949999       3.04163973E-17
   13.1099997       5.35057577E-17
   13.2250004       7.83524468E-17
   13.3400002       1.02905629E-16
   13.4549999       1.24687194E-16
   13.5699997       1.40971376E-16
   13.6850004       1.49025971E-16
   13.8000002       1.46399176E-16
   13.9150000       1.31228419E-16
   14.0299997       1.02541378E-16
   14.1450005       6.05164410E-17
   14.2600002       6.66822014E-18
   14.3750000      -5.60713444E-17
   14.4899998      -1.23400564E-16
   14.6049995      -1.89837011E-16
   14.7200003      -2.49049339E-16
   14.8350000      -2.94318009E-16
   14.9499998      -3.19097905E-16
   15.0649996      -3.17642649E-16
   15.1800003      -2.85639653E-16
   15.2950001      -2.20799758E-16
   15.4099998      -1.23342953E-16
   15.5249996       3.67367412E-18
   15.6400003       1.54231319E-16
   15.7550001       3.19459164E-16
   15.8699999       4.87992251E-16
   15.9849997       6.46570371E-16
   16.1000004       7.80850293E-16
   16.2150002       8.76383592E-16
   16.3299999       9.19694186E-16
   16.4449997       8.99377466E-16
   16.5599995       8.07136160E-16
   16.6749992       6.38665860E-16
   16.7900009       3.94312763E-16
   16.9050007       7.94378666E-17
   17.0200005      -2.95555868E-16
   17.1350002      -7.15554270E-16
   17.2500000      -1.16141092E-15
   17.3649998      -1.61093723E-15
   17.4799995      -2.04014302E-15
   17.5949993      -2.42464113E-15
   17.7099991      -2.74111953E-15
   17.8250008      -2.96877467E-15
   17.9400005      -3.09060554E-15
   18.0550003      -3.09448707E-15
   18.1700001      -2.97394792E-15
   18.2849998      -2.72862029E-15
   18.3999996      -2.36434424E-15
   18.5149994      -1.89294860E-15
   18.6299992      -1.33174681E-15
   18.7450008      -7.02795783E-16
   18.8600006      -3.19833983E-17
   18.9750004       6.52006205E-16
   19.0900002       1.31880986E-15
   19.2049999       1.93756479E-15
   19.3199997       2.47815498E-15
   19.4349995       2.91254672E-15
   19.5499992       3.21623598E-15
   19.6650009       3.36983567E-15
   19.7800007       3.36080079E-15
   19.8950005       3.18525490E-15
   20.0100002       2.84982605E-15
   20.1250000       2.37334397E-15
   20.2399998       1.78818968E-15
   20.3549995       1.14104486E-15
   20.4699993       4.92760094E-16
   20.5849991      -8.29147780E-17
   20.7000008      -5.01952889E-16
   20.8150005      -6.74174381E-16
   20.9300003      -5.08841861E-16
   21.0450001       7.84295401E-17
   21.1599998       1.15775174E-15
   21.2749996       2.77658882E-15
   21.3899994       4.95150855E-15
   21.5049992       7.66084888E-15
   21.6200008       1.08390563E-14
   21.7350006       1.43734257E-14
   21.8500004       1.81038520E-14
   21.9650002       2.18260570E-14
   22.0799999       2.52983957E-14
   22.1949997       2.82521673E-14
   22.3099995       3.04050269E-14
   22.4249992       3.14766964E-14
   22.5400009       3.12061541E-14
   22.6550007       2.93691395E-14
   22.7700005       2.57947553E-14
   22.8850002       2.03800769E-14
   23.0000000       1.31017422E-14
   23.1149998       4.02357125E-15
   23.2299995      -6.70019494E-15
   23.3449993      -1.88264118E-14
   23.4599991      -3.20292532E-14
   23.5750008      -4.59108053E-14
   23.6900005      -6.00153878E-14
   23.8050003      -7.38469344E-14
   23.9200001      -8.68884432E-14
   24.0349998      -9.86226210E-14
   24.1499996      -1.08552551E-13
   24.2649994      -1.16221675E-13
   24.3799992      -1.21231990E-13
   24.4950008      -1.23259828E-13
   24.6100006      -1.22068452E-13
   24.7250004      -1.17516972E-13
   24.8400002      -1.09565020E-13
   24.9549999      -9.82731691E-14
   25.0699997      -8.37987584E-14
   25.1849995      -6.63873999E-14
   25.2999992      -4.63605154E-14
   25.4150009      -2.40994155E-14
   25.5300007      -2.70305369E-17
   25.6450005       2.54118778E-14
   25.7600002       5.17703115E-14
   25.8750000       7.86174511E-14
   25.9899998       1.05554149E-13
   26.1049995       1.32224174E-13
   26.2199993       1.58320365E-13
   26.3349991       1.83584728E-13
   26.4500008       2.07802593E-13
   26.5650005       2.30790918E-13
   26.6800003       2.52381883E-13
   26.7950001       2.72402977E-13
   26.9099998       2.90655873E-13
   27.0249996       3.06895812E-13
   27.1399994       3.20813769E-13
   27.2549992       3.32023607E-13
   27.3700008       3.40055593E-13
   27.4850006       3.44357653E-13
   27.6000004       3.44304582E-13
   27.7150002       3.39215282E-13
   27.8299999       3.28376622E-13
   27.9449997       3.11072619E-13
   28.0599995       2.86616922E-13
   28.1749992       2.54386979E-13
   28.2900009       2.13856575E-13
   28.4050007       1.64625814E-13
   28.5200005       1.06446610E-13
   28.6350002       3.92433177E-14
   28.7500000      -3.68722996E-14
   28.8649998      -1.21591539E-13
   28.9799995      -2.14403189E-13
   29.0949993      -3.14591235E-13
   29.2099991      -4.21234336E-13
   29.3250008      -5.33206129E-13
   29.4400005      -6.49174779E-13
   29.5550003      -7.67602561E-13
   29.6700001      -8.86744129E-13
   29.7849998      -1.00464483E-12
   29.8999996      -1.11914124E-12
   30.0149994      -1.22786362E-12
   30.1299992      -1.32824361E-12
   30.2450008      -1.41752961E-12
   30.3600006      -1.49281022E-12
   30.4750004      -1.55104814E-12
   30.5900002      -1.58912662E-12
   30.7049999      -1.60390668E-12
   30.8199997      -1.59229639E-12
   30.9349995      -1.55133187E-12
   31.0499992      -1.47826684E-12
   31.1650009      -1.37066942E-12
   31.2800007      -1.22652583E-12
   31.3950005      -1.04434311E-12
   31.5100002      -8.23254225E-13
   31.6250000      -5.63115960E-13
   31.7399998      -2.64601139E-13
   31.8549995       7.07222028E-14
   31.9699993       4.40325429E-13
   32.0849991       8.40673939E-13
   32.2000008       1.26720314E-12
   32.3149986       1.71432194E-12
   32.4300003       2.17544168E-12
   32.5449982       2.64303943E-12
   32.6599998       3.10875002E-12
   32.7750015       3.56349108E-12
   32.8899994       3.99761821E-12
   33.0050011       4.40110578E-12
   33.1199989       4.76375276E-12
   33.2350006       5.07540104E-12
   33.3499985       5.32616833E-12
   33.4650002       5.50667541E-12
   33.5800018       5.60827600E-12
   33.6949997       5.62326444E-12
   33.8100014       5.54507091E-12
   33.9249992       5.36842402E-12
   34.0400009       5.08949046E-12
   34.1549988       4.70598343E-12
   34.2700005       4.21724374E-12
   34.3849983       3.62428902E-12
   34.5000000       2.92984604E-12
   34.6150017       2.13836089E-12
   34.7299995       1.25599151E-12
   34.8450012       2.90592610E-13
   34.9599991      -7.48316231E-13
   35.0750008      -1.84958776E-12
   35.1899986      -3.00050067E-12
   35.3050003      -4.18682623E-12
   35.4199982      -5.39291962E-12
   35.5349998      -6.60182976E-12
   35.6500015      -7.79544745E-12
   35.7649994      -8.95467641E-12
   35.8800011      -1.00596519E-11
   35.9949989      -1.10899840E-11
   36.1100006      -1.20250424E-11
   36.2249985      -1.28442630E-11
   36.3400002      -1.35274812E-11
   36.4550018      -1.40552734E-11
   36.5699997      -1.44093062E-11
   36.6850014      -1.45726851E-11
   36.7999992      -1.45302858E-11
   36.9150009      -1.42690816E-11
   37.0299988      -1.37784411E-11
   37.1450005      -1.30504106E-11
   37.2599983      -1.20799828E-11
   37.3750000      -1.08653407E-11
   37.4900017      -9.40808629E-12
   37.6049995      -7.71345574E-12
   37.7200012      -5.79051607E-12
   37.8349991      -3.65234362E-12
   37.9500008      -1.31617059E-12
   38.0649986       1.19649982E-12
   38.1800003       3.85982739E-12
   38.2949982       6.64362792E-12
   38.4099998       9.51344212E-12
   38.5250015       1.24306893E-11
   38.6399994       1.53529221E-11
   38.7550011       1.82341781E-11
   38.8699989       2.10254644E-11
   38.9850006       2.36753273E-11
   39.0999985       2.61305561E-11
   39.2150002       2.83369977E-11
   39.3300018       3.02404386E-11
   39.4449997       3.17876107E-11
   39.5600014       3.29272547E-11
   39.6749992       3.36112457E-11
   39.7900009       3.37957509E-11
   39.9049988       3.34424571E-11
   40.0200005       3.25197300E-11
   40.1349983       3.10038245E-11
   40.2500000       2.88799956E-11
   40.3650017       2.61435630E-11
   40.4799995       2.28008428E-11
   40.5950012       1.88699386E-11
   40.7099991       1.43813277E-11
   40.8250008       9.37822563E-12
   40.9399986       3.91668078E-12
   41.0550003      -1.93464277E-12
   41.1699982      -8.09498302E-12
   41.2849998      -1.44723617E-11
   41.4000015      -2.09647924E-11
   41.5149994      -2.74618037E-11
   41.6300011      -3.38462973E-11
   41.7449989      -3.99966345E-11
   41.8600006      -4.57889490E-11
   41.9749985      -5.10996384E-11
   42.0900002      -5.58079069E-11
   42.2050018      -5.97983676E-11
   42.3199997      -6.29635788E-11
   42.4350014      -6.52065138E-11
   42.5499992      -6.64428373E-11
   42.6650009      -6.66030078E-11
   42.7799988      -6.56341093E-11
   42.8950005      -6.35014333E-11
   43.0099983      -6.01897143E-11
   43.1250000      -5.57041184E-11
   43.2400017      -5.00708086E-11
   43.3549995      -4.33372505E-11
   43.4700012      -3.55721043E-11
   43.5849991      -2.68648263E-11
   43.7000008      -1.73248690E-11
   43.8149986      -7.08058221E-12
   43.9300003       3.72225991E-12
   44.0449982       1.49222041E-11
   44.1599998       2.63441977E-11
   44.2750015       3.78019525E-11
   44.3899994       4.91004633E-11
   44.5050011       6.00388211E-11
   44.6199989       7.04131128E-11
   44.7350006       8.00194008E-11
   44.8499985       8.86567625E-11
   44.9650002       9.61303259E-11
   45.0800018       1.02254191E-10
   45.1949997       1.06854192E-10
   45.3100014       1.09770588E-10
   45.4249992       1.10860376E-10
   45.5400009       1.09999482E-10
   45.6549988       1.07084529E-10
   45.7700005       1.02034367E-10
   45.8849983       9.47912443E-11
   46.0000000       8.53215623E-11
   46.1150017       7.36163977E-11
   46.2299995       5.96915711E-11
   46.3450012       4.35873837E-11
   46.4599991       2.53681208E-11
   46.5750008       5.12116087E-12
   46.6899986      -1.70441213E-11
   46.8050003      -4.09976983E-11
   46.9199982      -6.65904207E-11
   47.0349998      -9.36557012E-11
   47.1500015      -1.22011304E-10
   47.2649994      -1.51461232E-10
   47.3800011      -1.81797619E-10
   47.4949989      -2.12802706E-10
   47.6100006      -2.44250814E-10
   47.7249985      -2.75910406E-10
   47.8400002      -3.07545989E-10
   47.9550018      -3.38920531E-10
   48.0699997      -3.69797248E-10
   48.1850014      -3.99942274E-10
   48.2999992      -4.29126817E-10
   48.4150009      -4.57129806E-10
   48.5299988      -4.83740603E-10
   48.6450005      -5.08761699E-10
   48.7599983      -5.32011490E-10
   48.8750000      -5.53327051E-10
   48.9900017      -5.72567049E-10
   49.1049995      -5.89613969E-10
   49.2200012      -6.04376438E-10
   49.3349991      -6.16790896E-10
   49.4500008      -6.26823093E-10
   49.5649986      -6.34468367E-10
   49.6800003      -6.39751752E-10
   49.7949982      -6.42727260E-10
   49.9099998      -6.43476272E-10
   50.0250015      -6.42105369E-10
   50.1399994      -6.38743447E-10
   50.2550011      -6.33538388E-10
   50.3699989      -6.26652841E-10
   50.4850006      -6.18260498E-10
   50.5999985      -6.08541439E-10
   50.7150002      -5.97678018E-10
   50.8300018      -5.85850535E-10
   50.9449997      -5.73233461E-10
   51.0600014      -5.59992219E-10
   51.1749992      -5.46279855E-10
   51.2900009      -5.32234923E-10
   51.4049988      -5.17979937E-10
   51.5200005      -5.03619590E-10
   51.6349983      -4.89241037E-10
   51.7500000      -4.74912887E-10
   51.8650017      -4.60685878E-10
   51.9799995      -4.46593623E-10
   52.0950012      -4.32652719E-10
   52.2099991      -4.18863888E-10
   52.3250008      -4.05212447E-10
   52.4399986      -3.91668975E-10
   52.5550003      -3.78189674E-10
   52.6699982      -3.64716368E-10
   52.7849998      -3.51176421E-10
   52.9000015      -3.37482153E-10
   53.0149994      -3.23530286E-10
   53.1300011      -3.09201248E-10
   53.2449989      -2.94358593E-10
   53.3600006      -2.78847667E-10
   53.4749985      -2.62496358E-10
   53.5900002      -2.45113402E-10
   53.7050018      -2.26489966E-10
   53.8199997      -2.06399481E-10
   53.9350014      -1.84599336E-10
   54.0499992      -1.60831751E-10
   54.1650009      -1.34827233E-10
   54.2799988      -1.06305735E-10
   54.3950005      -7.49804871E-11
   54.5099983      -4.05607353E-11
   54.6250000      -2.75453813E-12
   54.7400017       3.87267891E-11
   54.8549995       8.41671940E-11
   54.9700012       1.33842215E-10
   55.0849991       1.88017130E-10
   55.2000008       2.46944604E-10
   55.3149986       3.10864445E-10
   55.4300003       3.80001197E-10
   55.5449982       4.54565441E-10
   55.6599998       5.34753353E-10
   55.7750015       6.20747620E-10
   55.8899994       7.12718273E-10
   56.0050011       8.10824463E-10
   56.1199989       9.15215570E-10
   56.2350006       1.02603293E-09
   56.3499985       1.14341125E-09
   56.4650002       1.26747979E-09
   56.5800018       1.39836298E-09
   56.6949997       1.53618118E-09
   56.8100014       1.68105063E-09
   56.9249992       1.83308235E-09
   57.0400009       1.99238137E-09
   57.1549988       2.15904405E-09
   57.2700005       2.33315722E-09
   57.3849983       2.51479371E-09
   57.5000000       2.70400968E-09
   57.6150017       2.90084223E-09
   57.7299995       3.10530468E-09
   57.8450012       3.31738459E-09
   57.9599991       3.53703933E-09
   58.0750008       3.76419518E-09
   58.1899986       3.99874356E-09
   58.3050003       4.24054258E-09
   58.4199982       4.48941373E-09
   58.5349998       4.74514517E-09
   58.6500015       5.00749131E-09
   58.7649994       5.27617416E-09
   58.8800011       5.55088953E-09
   58.9949989       5.83130655E-09
   59.1100006       6.11707485E-09
   59.2249985       6.40782849E-09
   59.3400002       6.70319000E-09
   59.4550018       7.00277436E-09
   59.5699997       7.30619831E-09
   59.6850014       7.61307994E-09
   59.7999992       7.92304711E-09
   59.9150009       8.23574098E-09
   60.0299988       8.55081872E-09
   60.1450005       8.86796148E-09
   60.2599983       9.18687082E-09
   60.3750000       9.50728118E-09
   60.4900017       9.82895720E-09
   60.6049995       1.01516964E-08
   60.7200012       1.04753335E-08
   60.8349991       1.07997362E-08
   60.9500008       1.11248166E-08
   61.0649986       1.14505196E-08
   61.1800003       1.17768364E-08
   61.2949982       1.21037962E-08
   61.4099998       1.24314656E-08
   61.5250015       1.27599495E-08
   61.6399994       1.30893945E-08
   61.7550011       1.34199807E-08
   61.8699989       1.37519214E-08
   61.9850006       1.40854688E-08
   62.0999985       1.44209071E-08
   62.2150002       1.47585490E-08
   62.3300018       1.50987418E-08
   62.4449997       1.54418593E-08
   62.5600014       1.57882951E-08
   62.6749992       1.61384719E-08
   62.7900009       1.64928373E-08
   62.9049988       1.68518497E-08
   63.0200005       1.72159833E-08
   63.1349983       1.75857267E-08
   63.2500000       1.79615736E-08
   63.3650017       1.83440214E-08
   63.4799995       1.87335711E-08
   63.5950012       1.91307112E-08
   63.7099991       1.95359355E-08
   63.8250008       1.99497165E-08
   63.9399986       2.03725161E-08
   64.0550003       2.08047783E-08
   64.1699982       2.12469313E-08
   64.2850037       2.16993676E-08
   64.4000015       2.21624514E-08
   64.5149994       2.26365255E-08
   64.6299973       2.31218902E-08
   64.7450027       2.36188189E-08
   64.8600006       2.41275355E-08
   64.9749985       2.46482195E-08
   65.0899963       2.51810075E-08
   65.2050018       2.57259902E-08
   65.3199997       2.62831854E-08
   65.4349976       2.68525699E-08
   65.5500031       2.74340515E-08
   65.6650009       2.80274701E-08
   65.7799988       2.86326021E-08
   65.8949966       2.92491578E-08
   66.0100021       2.98767979E-08
   66.1250000       3.05151069E-08
   66.2399979       3.11636192E-08
   66.3550034       3.18218127E-08
   66.4700012       3.24891261E-08
   66.5849991       3.31649588E-08
   66.6999969       3.38486679E-08
   66.8150024       3.45396067E-08
   66.9300003       3.52370968E-08
   67.0449982       3.59404631E-08
   67.1600037       3.66490269E-08
   67.2750015       3.73621241E-08
   67.3899994       3.80791114E-08
   67.5049973       3.87993779E-08
   67.6200027       3.95223125E-08
   67.7350006       4.02473681E-08
   67.8499985       4.09740366E-08
   67.9649963       4.17018313E-08
   68.0800018       4.24303011E-08
   68.1949997       4.31590337E-08
   68.3099976       4.38876562E-08
   68.4250031       4.46158062E-08
   68.5400009       4.53431674E-08
   68.6549988       4.60694096E-08
   68.7699966       4.67942449E-08
   68.8850021       4.75173820E-08
   69.0000000       4.82385403E-08
   69.1149979       4.89574319E-08
   69.2300034       4.96737833E-08
   69.3450012       5.03873032E-08
   69.4599991       5.10976790E-08
   69.5749969       5.18046086E-08
   69.6900024       5.25077724E-08
   69.8050003       5.32068292E-08
   69.9199982       5.39014593E-08
   70.0350037       5.45913004E-08
   70.1500015       5.52760078E-08
   70.2649994       5.59551907E-08
   70.3799973       5.66284868E-08
   70.4950027       5.72955265E-08
   70.6100006       5.79559192E-08
   70.7249985       5.86093130E-08
   70.8399963       5.92553278E-08
   70.9550018       5.98936083E-08
   71.0699997       6.05238242E-08
   71.1849976       6.11456628E-08
   71.3000031       6.17588398E-08
   71.4150009       6.23631138E-08
   71.5299988       6.29582573E-08
   71.6449966       6.35441211E-08
   71.7600021       6.41205844E-08
   71.8750000       6.46876046E-08
   71.9899979       6.52451462E-08
   72.1050034       6.57932802E-08
   72.2200012       6.63321345E-08
   72.3349991       6.68618725E-08
   72.4499969       6.73827643E-08
   72.5650024       6.78951224E-08
   72.6800003       6.83993235E-08
   72.7949982       6.88958579E-08
   72.9100037       6.93852584E-08
   73.0250015       6.98681220E-08
   73.1399994       7.03451093E-08
   73.2549973       7.08169736E-08
   73.3700027       7.12845036E-08
   73.4850006       7.17485023E-08
   73.5999985       7.22098505E-08
   73.7149963       7.26694438E-08
   73.8300018       7.31281915E-08
   73.9449997       7.35869818E-08
   74.0599976       7.40467243E-08
   74.1750031       7.45082573E-08
   74.2900009       7.49724691E-08
   74.4049988       7.54401626E-08
   74.5199966       7.59120908E-08
   74.6350021       7.63889787E-08
   74.7500000       7.68715154E-08
   74.8649979       7.73602196E-08
   74.9800034       7.78556597E-08
   75.0950012       7.83582408E-08
   75.2099991       7.88682968E-08
   75.3249969       7.93860622E-08
   75.4400024       7.99117217E-08
   75.5550003       8.04452895E-08
   75.6699982       8.09866734E-08
   75.7850037       8.15356884E-08
   75.9000015       8.20920008E-08
   76.0149994       8.26551627E-08
   76.1299973       8.32245917E-08
   76.2450027       8.37995984E-08
   76.3600006       8.43793302E-08
   76.4749985       8.49628279E-08
   76.5899963       8.55490541E-08
   76.7050018       8.61368150E-08
   76.8199997       8.67247749E-08
   76.9349976       8.73115766E-08
   77.0500031       8.78957493E-08
   77.1650009       8.84756801E-08
   77.2799988       8.90497560E-08
   77.3949966       8.96163854E-08
   77.5100021       9.01737991E-08
   77.6250000       9.07203130E-08
   77.7399979       9.12542646E-08
   77.8550034       9.17738987E-08
   77.9700012       9.22775882E-08
   78.0849991       9.27637558E-08
   78.1999969       9.32308737E-08
   78.3150024       9.36775066E-08
   78.4300003       9.41023544E-08
   78.5449982       9.45042231E-08
   78.6600037       9.48820329E-08
   78.7750015       9.52349026E-08
   78.8899994       9.55620081E-08
   79.0049973       9.58627382E-08
   79.1200027       9.61366950E-08
   79.2350006       9.63835234E-08
   79.3499985       9.66030740E-08
   79.4649963       9.67953824E-08
   79.5800018       9.69605765E-08
   79.6949997       9.70989547E-08
   79.8099976       9.72110001E-08
   79.9250031       9.72972458E-08
   80.0400009       9.73583809E-08
   80.1549988       9.73952083E-08
   80.2699966       9.74086092E-08
   80.3850021       9.73995924E-08
   80.5000000       9.73691243E-08
   80.6149979       9.73184058E-08
   80.7300034       9.72485665E-08
   80.8450012       9.71607932E-08
   80.9599991       9.70563363E-08
   81.0749969       9.69364606E-08
   81.1900024       9.68024310E-08
   81.3050003       9.66554410E-08
   81.4199982       9.64966489E-08
   81.5350037       9.63271702E-08
   81.6500015       9.61481419E-08
   81.7649994       9.59604520E-08
   81.8799973       9.57650244E-08
   81.9950027       9.55626689E-08
   82.1100006       9.53540962E-08
   82.2249985       9.51399244E-08
   82.3399963       9.49207504E-08
   82.4550018       9.46969720E-08
   82.5699997       9.44690441E-08
   82.6849976       9.42372012E-08
   82.8000031       9.40016704E-08
   82.9150009       9.37626581E-08
   83.0299988       9.35201285E-08
   83.1449966       9.32742665E-08
   83.2600021       9.30249229E-08
   83.3750000       9.27720265E-08
   83.4899979       9.25154851E-08
   83.6050034       9.22551209E-08
   83.7200012       9.19907066E-08
   83.8349991       9.17220504E-08
   83.9499969       9.14489391E-08
   84.0650024       9.11710387E-08
   84.1800003       9.08881574E-08
   84.2949982       9.06000537E-08
   84.4100037       9.03064574E-08
   84.5250015       9.00071484E-08
   84.6399994       8.97018282E-08
   84.7549973       8.93903049E-08
   84.8700027       8.90722447E-08
   84.9850006       8.87474627E-08
   85.0999985       8.84155895E-08
   85.2149963       8.80764119E-08
   85.3300018       8.77295392E-08
   85.4449997       8.73747084E-08
   85.5599976       8.70116494E-08
   85.6750031       8.66399930E-08
   85.7900009       8.62594831E-08
   85.9049988       8.58698073E-08
   86.0199966       8.54707523E-08
   86.1350021       8.50621404E-08
   86.2500000       8.46438581E-08
   86.3649979       8.42157917E-08
   86.4800034       8.37779979E-08
   86.5950012       8.33303559E-08
   86.7099991       8.28729512E-08
   86.8249969       8.24058546E-08
   86.9400024       8.19291444E-08
   87.0550003       8.14429200E-08
   87.1699982       8.09472738E-08
   87.2850037       8.04422911E-08
   87.4000015       7.99282063E-08
   87.5149994       7.94051616E-08
   87.6299973       7.88732706E-08
   87.7450027       7.83326968E-08
   87.8600006       7.77836675E-08
   87.9749985       7.72263675E-08
   88.0899963       7.66610455E-08
   88.2050018       7.60878649E-08
   88.3199997       7.55070317E-08
   88.4349976       7.49187379E-08
   88.5500031       7.43232036E-08
   88.6650009       7.37206207E-08
   88.7799988       7.31111029E-08
   88.8949966       7.24947213E-08
   89.0100021       7.18715896E-08
   89.1250000       7.12418142E-08
   89.2399979       7.06052958E-08
   89.3550034       6.99620770E-08
   89.4700012       6.93120938E-08
   89.5849991       6.86552397E-08
   89.6999969       6.79913725E-08
   89.8150024       6.73202578E-08
   89.9300003       6.66417534E-08
   90.0449982       6.59555610E-08
   90.1600037       6.52615029E-08
   90.2750015       6.45593232E-08
   90.3899994       6.38487307E-08
   90.5049973       6.31295336E-08
   90.6200027       6.24015470E-08
   90.7350006       6.16645153E-08
   90.8499985       6.09183743E-08
   90.9649963       6.01630816E-08
   91.0800018       5.93987153E-08
   91.1949997       5.86254458E-08
   91.3099976       5.78436143E-08
   91.4250031       5.70536756E-08
   91.5400009       5.62562263E-08
   91.6549988       5.54519133E-08
   91.7699966       5.46416175E-08
   91.8850021       5.38262022E-08
   92.0000000       5.30066444E-08
   92.1149979       5.21841237E-08
   92.2300034       5.13596419E-08
   92.3450012       5.05343216E-08
   92.4599991       4.97092891E-08
   92.5749969       4.88857026E-08
   92.6900024       4.80645852E-08
   92.8050003       4.72469281E-08
   92.9199982       4.64337369E-08
   93.0350037       4.56257894E-08
   93.1500015       4.48237820E-08
   93.2649994       4.40284325E-08
   93.3799973       4.32403588E-08
   93.4950027       4.24600302E-08
   93.6100006       4.16879686E-08
   93.7249985       4.09245402E-08
   93.8399963       4.01701499E-08
   93.9550018       3.94251956E-08
   94.0699997       3.86901462E-08
   94.1849976       3.79652434E-08
   94.3000031       3.72510129E-08
   94.4150009       3.65478527E-08
   94.5299988       3.58562424E-08
   94.6449966       3.51766332E-08
   94.7600021       3.45095756E-08
   94.8750000       3.38554820E-08
   94.9899979       3.32149064E-08
   95.1050034       3.25883462E-08
   95.2200012       3.19763274E-08
   95.3349991       3.13793969E-08
   95.4499969       3.07979882E-08
   95.5650024       3.02326448E-08
   95.6800003       2.96837879E-08
   95.7949982       2.91519004E-08
   95.9100037       2.86375315E-08
   96.0250015       2.81410202E-08
   96.1399994       2.76628391E-08
   96.2549973       2.72034093E-08
   96.3700027       2.67631197E-08
   96.4850006       2.63423399E-08
   96.5999985       2.59413522E-08
   96.7149963       2.55604515E-08
   96.8300018       2.51997712E-08
   96.9449997       2.48595153E-08
   97.0599976       2.45397320E-08
   97.1750031       2.42404070E-08
   97.2900009       2.39614906E-08
   97.4049988       2.37029596E-08
   97.5199966       2.34646134E-08
   97.6350021       2.32462654E-08
   97.7500000       2.30477415E-08
   97.8649979       2.28688162E-08
   97.9800034       2.27092194E-08
   98.0950012       2.25687415E-08
   98.2099991       2.24470593E-08
   98.3249969       2.23438352E-08
   98.4400024       2.22587548E-08