   0.00000000       0.00000000    
  0.115000002       0.00000000    
  0.230000004       0.00000000    
  0.344999999       0.00000000    
  0.460000008       0.00000000    
  0.574999988       0.00000000    
  0.689999998       0.00000000    
  0.805000007       1.19969356E-33
  0.920000017       1.38007709E-32
   1.03499997       7.73345449E-32
   1.14999998       2.74942204E-31
   1.26499999       6.79929207E-31
   1.38000000       1.28751652E-30
   1.49500000       2.81998311E-30
   1.61000001       1.19091330E-29
   1.72500002       5.97889183E-29
   1.84000003       2.52633379E-28
   1.95500004       8.81806477E-28
   2.06999993       2.62693031E-27
   2.18499994       6.87228735E-27
   2.29999995       1.61133299E-26
   2.41499996       3.43434663E-26
   2.52999997       6.71832342E-26
   2.64499998       1.21367840E-25
   2.75999999       2.03103913E-25
   2.87500000       3.14832711E-25
   2.99000001       4.50223182E-25
   3.10500002       5.87887989E-25
   3.22000003       6.85460666E-25
   3.33500004       6.77273917E-25
   3.45000005       4.80682236E-25
   3.56500006       1.75204574E-26
   3.68000007      -7.42724720E-25
   3.79500008      -1.71412257E-24
   3.91000009      -2.60292840E-24
   4.02500010      -2.80936107E-24
   4.13999987      -1.35638864E-24
   4.25500011       3.09900457E-24
   4.36999989       1.20974234E-23
   4.48500013       2.69697123E-23
   4.59999990       4.81270344E-23
   4.71500015       7.40414370E-23
   4.82999992       1.00015389E-22
   4.94500017       1.16991013E-22
   5.05999994       1.10832054E-22
   5.17500019       6.26766587E-23
   5.28999996      -4.89509081E-23
   5.40500021      -2.43658459E-22
   5.51999998      -5.32036017E-22
   5.63500023      -9.06149199E-22
   5.75000000      -1.32887616E-21
   5.86499977      -1.72435331E-21
   5.98000002      -1.97283525E-21
   6.09499979      -1.91395619E-21
   6.21000004      -1.36234981E-21
   6.32499981      -1.38473160E-22
   6.44000006       1.88494751E-21
   6.55499983       4.72414601E-21
   6.67000008       8.22117120E-21
   6.78499985       1.19891437E-20
   6.90000010       1.53826336E-20
   7.01499987       1.75113813E-20
   7.13000011       1.73136802E-20
   7.24499989       1.36989834E-20
   7.36000013       5.75791741E-21
   7.47499990      -6.97777980E-21
   7.59000015      -2.42606015E-20
   7.70499992      -4.48898091E-20
   7.82000017      -6.65747269E-20
   7.93499994      -8.59647064E-20
   8.05000019      -9.89008741E-20
   8.16499996      -1.00918710E-19
   8.27999973      -8.79893279E-20
   8.39500046      -5.74346913E-20
   8.51000023      -8.89365773E-21
   8.62500000       5.48360065E-20
   8.73999977       1.27290818E-19
   8.85499954       1.98387211E-19
   8.97000027       2.55202357E-19
   9.08500004       2.83594504E-19
   9.19999981       2.70640391E-19
   9.31499958       2.07708968E-19
   9.43000031       9.38115808E-20
   9.54500008      -6.12942579E-20
   9.65999985      -2.34894504E-19
   9.77499962      -3.90684925E-19
   9.89000034      -4.80329771E-19
   10.0050001      -4.47624756E-19
   10.1199999      -2.35342190E-19
   10.2349997       2.05613022E-19
   10.3500004       9.05605606E-19
   10.4650002       1.86561778E-18
   10.5799999       3.04830738E-18
   10.6949997       4.37276623E-18
   10.8100004       5.71486181E-18
   10.9250002       6.91463807E-18
   11.0400000       7.79144663E-18
   11.1549997       8.16633067E-18
   11.2700005       7.88987285E-18
   11.3850002       6.87230959E-18
   11.5000000       5.11147326E-18
   11.6149998       2.71338485E-18
   11.7299995      -9.99162319E-20
   11.8450003      -2.99994709E-18
   11.9600000      -5.58181022E-18
   12.0749998      -7.41521593E-18
   12.1899996      -8.11381628E-18
   12.3050003      -7.41661387E-18
   12.4200001      -5.27175481E-18
   12.5349998      -1.91027271E-18
   12.6499996       2.10419528E-18
   12.7650003       5.86343296E-18
   12.8800001       8.15180124E-18
   12.9949999       7.53942289E-18
   13.1099997       2.53196739E-18
   13.2250004      -8.23064975E-18
   13.3400002      -2.57424844E-17
   13.4549999      -5.03909231E-17
   13.5699997      -8.17376405E-17
   13.6850004      -1.18355305E-16
   13.8000002      -1.57753997E-16
   13.9150000      -1.96426292E-16
   14.0299997      -2.30031093E-16
   14.1450005      -2.53722314E-16
   14.2600002      -2.62611024E-16
   14.3750000      -2.52332544E-16
   14.4899998      -2.19670094E-16
   14.6049995      -1.63172123E-16
   14.7200003      -8.36890059E-17
   14.8350000       1.52483715E-17
   14.9499998       1.27281232E-16
   15.0649996       2.43366515E-16
   15.1800003       3.52247545E-16
   15.2950001       4.41258796E-16
   15.4099998       4.97435133E-16
   15.5249996       5.08859649E-16
   15.6400003       4.66147589E-16
   15.7550001       3.63933476E-16
   15.8699999       2.02207967E-16
   15.9849997      -1.26553150E-17
   16.1000004      -2.67336912E-16
   16.2150002      -5.41601654E-16
   16.3299999      -8.09009003E-16
   16.4449997      -1.03834095E-15
   16.5599995      -1.19571586E-15
   16.6749992      -1.24728937E-15
   16.7900009      -1.16237675E-15
   16.9050007      -9.16765252E-16
   17.0200005      -4.95941338E-16
   17.1350002       1.02068112E-16
   17.2500000       8.64548953E-16
   17.3649998       1.76292703E-15
   17.4799995       2.75279143E-15
   17.5949993       3.77526608E-15
   17.7099991       4.75976824E-15
   17.8250008       5.62807611E-15
   17.9400005       6.29951617E-15
   18.0550003       6.69694106E-15
   18.1700001       6.75308198E-15
   18.2849998       6.41677941E-15
   18.3999996       5.65854431E-15
   18.5149994       4.47492122E-15
   18.6299992       2.89116803E-15
   18.7450008       9.61871345E-16
   18.8600006      -1.23075401E-15
   18.9750004      -3.58093428E-15
   19.0900002      -5.96563992E-15
   19.2049999      -8.25278515E-15
   19.3199997      -1.03107847E-14
   19.4349995      -1.20187648E-14
   19.5499992      -1.32766223E-14
   19.6650009      -1.40140610E-14
   19.7800007      -1.41977503E-14
   19.8950005      -1.38358673E-14
   20.0100002      -1.29794111E-14
   20.1250000      -1.17199595E-14
   20.2399998      -1.01837679E-14
   20.3549995      -8.52244995E-15
   20.4699993      -6.90073676E-15
   20.5849991      -5.48218570E-15
   20.7000008      -4.41383490E-15
   20.8150005      -3.81105026E-15
   20.9300003      -3.74377339E-15
   21.0450001      -4.22551830E-15
   21.1599998      -5.20613851E-15
   21.2749996      -6.56929404E-15
   21.3899994      -8.13515430E-15
   21.5049992      -9.66851602E-15
   21.6200008      -1.08921034E-14
   21.7350006      -1.15043574E-14
   21.8500004      -1.12006495E-14
   21.9650002      -9.69655197E-15
   22.0799999      -6.75147770E-15
   22.1949997      -2.19089752E-15
   22.3099995       4.07455120E-15
   22.4249992       1.20348144E-14
   22.5400009       2.15722758E-14
   22.6550007       3.24606268E-14
   22.7700005       4.43712992E-14
   22.8850002       5.68871596E-14
   23.0000000       6.95226618E-14
   23.1149998       8.17492707E-14
   23.2299995       9.30242008E-14
   23.3449993       1.02820150E-13
   23.4599991       1.10653775E-13
   23.5750008       1.16110477E-13
   23.6900005       1.18863009E-13
   23.8050003       1.18682503E-13
   23.9200001       1.15440575E-13
   24.0349998       1.09102235E-13
   24.1499996       9.97102655E-14
   24.2649994       8.73625581E-14
   24.3799992       7.21846221E-14
   24.4950008       5.43006226E-14
   24.6100006       3.38061624E-14
   24.7250004       1.07466585E-14
   24.8400002      -1.48952895E-14
   24.9549999      -4.32007098E-14
   25.0699997      -7.43014320E-14
   25.1849995      -1.08352665E-13
   25.2999992      -1.45492044E-13
   25.4150009      -1.85787014E-13
   25.5300007      -2.29174427E-13
   25.6450005      -2.75397435E-13
   25.7600002      -3.23944810E-13
   25.8750000      -3.73999741E-13
   25.9899998      -4.24403649E-13
   26.1049995      -4.73641254E-13
   26.2199993      -5.19850222E-13
   26.3349991      -5.60858868E-13
   26.4500008      -5.94252458E-13
   26.5650005      -6.17466310E-13
   26.6800003      -6.27901539E-13
   26.7950001      -6.23058788E-13
   26.9099998      -6.00681180E-13
   27.0249996      -5.58898305E-13
   27.1399994      -4.96361958E-13
   27.2549992      -4.12363936E-13
   27.3700008      -3.06928230E-13
   27.4850006      -1.80869778E-13
   27.6000004      -3.58153211E-14
   27.7150002       1.25816621E-13
   27.8299999       3.00876701E-13
   27.9449997       4.85584337E-13
   28.0599995       6.75660537E-13
   28.1749992       8.66487817E-13
   28.2900009       1.05328767E-12
   28.4050007       1.23130705E-12
   28.5200005       1.39600300E-12
   28.6350002       1.54321543E-12
   28.7500000       1.66931920E-12
   28.8649998       1.77134728E-12
   28.9799995       1.84707891E-12
   29.0949993       1.89508674E-12
   29.2099991       1.91474419E-12
   29.3250008       1.90618766E-12
   29.4400005       1.87023964E-12
   29.5550003       1.80829646E-12
   29.6700001       1.72218392E-12
   29.7849998       1.61399128E-12
   29.8999996       1.48588856E-12
   30.0149994       1.33994378E-12
   30.1299992       1.17794088E-12
   30.2450008       1.00121929E-12
   30.3600006       8.10537564E-13
   30.4750004       6.05972683E-13
   30.5900002       3.86866103E-13
   30.7049999       1.51819136E-13
   30.8199997      -1.01257259E-13
   30.9349995      -3.75033609E-13
   31.0499992      -6.72599509E-13
   31.1650009      -9.97246773E-13
   31.2800007      -1.35220752E-12
   31.3950005      -1.74035504E-12
   31.5100002      -2.16388149E-12
   31.6250000      -2.62396051E-12
   31.7399998      -3.12041690E-12
   31.8549995      -3.65141164E-12
   31.9699993      -4.21315803E-12
   32.0849991      -4.79968799E-12
   32.2000008      -5.40267484E-12
   32.3149986      -6.01132902E-12
   32.4300003      -6.61236994E-12
   32.5449982      -7.19008316E-12
   32.6599998      -7.72646877E-12
   32.7750015      -8.20147682E-12
   32.8899994      -8.59334218E-12
   33.0050011      -8.87899389E-12
   33.1199989      -9.03456216E-12
   33.2350006      -9.03596208E-12
   33.3499985      -8.85954678E-12
   33.4650002      -8.48282295E-12
   33.5800018      -7.88523240E-12
   33.6949997      -7.04896558E-12
   33.8100014      -5.95980600E-12
   33.9249992      -4.60798587E-12
   34.0400009      -2.98902504E-12
   34.1549988      -1.10453899E-12
   34.2700005       1.03702008E-12
   34.3849983       3.41971959E-12
   34.5000000       6.01963401E-12
   34.6150017       8.80448318E-12
   34.7299995       1.17334883E-11
   34.8450012       1.47574435E-11
   34.9599991       1.78190431E-11
   35.0750008       2.08534925E-11
   35.1899986       2.37894201E-11
   35.3050003       2.65500746E-11
   35.4199982       2.90548401E-11
   35.5349998       3.12209911E-11
   35.6500015       3.29657378E-11
   35.7649994       3.42084347E-11
   35.8800011       3.48729656E-11
   35.9949989       3.48902088E-11
   36.1100006       3.42004862E-11
   36.2249985       3.27559889E-11
   36.3400002       3.05229765E-11
   36.4550018       2.74838121E-11
   36.5699997       2.36386015E-11
   36.6850014       1.90064683E-11
   36.7999992       1.36263431E-11
   36.9150009       7.55723348E-12
   37.0299988       8.77937642E-13
   37.1450005      -6.31382967E-12
   37.2599983      -1.39028754E-11
   37.3750000      -2.17585186E-11
   37.4900017      -2.97370982E-11
   37.6049995      -3.76849073E-11
   37.7200012      -4.54414492E-11
   37.8349991      -5.28430182E-11
   37.9500008      -5.97263350E-11
   38.0649986      -6.59322874E-11
   38.1800003      -7.13094930E-11
   38.2949982      -7.57177446E-11
   38.4099998      -7.90310734E-11
   38.5250015      -8.11404763E-11
   38.6399994      -8.19561086E-11
   38.7550011      -8.14090254E-11
   38.8699989      -7.94523544E-11
   38.9850006      -7.60619553E-11
   39.0999985      -7.12365514E-11
   39.2150002      -6.49974519E-11
   39.3300018      -5.73878549E-11
   39.4449997      -4.84718550E-11
   39.5600014      -3.83332324E-11
   39.6749992      -2.70741502E-11
   39.7900009      -1.48137769E-11
   39.9049988      -1.68698215E-12
   40.0200005       1.21569161E-11
   40.1349983       2.65552181E-11
   40.2500000       4.13328226E-11
   40.3650017       5.63030352E-11
   40.4799995       7.12683246E-11
   40.5950012       8.60210861E-11
   40.7099991       1.00344427E-10
   40.8250008       1.14013243E-10
   40.9399986       1.26795435E-10
   41.0550003       1.38453735E-10
   41.1699982       1.48747833E-10
   41.2849998       1.57437327E-10
   41.4000015       1.64285086E-10
   41.5149994       1.69061418E-10
   41.6300011       1.71548928E-10
   41.7449989       1.71547679E-10
   41.8600006       1.68881104E-10
   41.9749985       1.63401959E-10
   42.0900002       1.54998556E-10
   42.2050018       1.43600645E-10
   42.3199997       1.29185135E-10
   42.4350014       1.11780980E-10
   42.5499992       9.14733289E-11
   42.6650009       6.84064541E-11
   42.7799988       4.27854557E-11
   42.8950005       1.48764803E-11
   43.0099983      -1.49945611E-11
   43.1250000      -4.64449139E-11
   43.2400017      -7.90392890E-11
   43.3549995      -1.12295680E-10
   43.4700012      -1.45692458E-10
   43.5849991      -1.78676476E-10
   43.7000008      -2.10672008E-10
   43.8149986      -2.41090148E-10
   43.9300003      -2.69338468E-10
   44.0449982      -2.94830715E-10
   44.1599998      -3.16995985E-10
   44.2750015      -3.35287326E-10
   44.3899994      -3.49189511E-10
   44.5050011      -3.58225782E-10
   44.6199989      -3.61963265E-10
   44.7350006      -3.60017294E-10
   44.8499985      -3.52054497E-10
   44.9650002      -3.37794376E-10
   45.0800018      -3.17009974E-10
   45.1949997      -2.89527319E-10
   45.3100014      -2.55223953E-10
   45.4249992      -2.14026810E-10
   45.5400009      -1.65909383E-10
   45.6549988      -1.10888708E-10
   45.7700005      -4.90218144E-11
   45.8849983       1.95974539E-11
   46.0000000       9.48416207E-11
   46.1150017       1.76552578E-10
   46.2299995       2.64543942E-10
   46.3450012       3.58603508E-10
   46.4599991       4.58494298E-10
   46.5750008       5.63956437E-10
   46.6899986       6.74707512E-10
   46.8050003       7.90443100E-10
   46.9199982       9.10837183E-10
   47.0349998       1.03554165E-09
   47.1500015       1.16418652E-09
   47.2649994       1.29637989E-09
   47.3800011       1.43170698E-09
   47.4949989       1.56973179E-09
   47.6100006       1.70999592E-09
   47.7249985       1.85202043E-09
   47.8400002       1.99530570E-09
   47.9550018       2.13933427E-09
   48.0699997       2.28357155E-09
   48.1850014       2.42746756E-09
   48.2999992       2.57045962E-09
   48.4150009       2.71197531E-09
   48.5299988       2.85143509E-09
   48.6450005       2.98825453E-09
   48.7599983       3.12184878E-09
   48.8750000       3.25163474E-09
   48.9900017       3.37703598E-09
   49.1049995       3.49748586E-09
   49.2200012       3.61243035E-09
   49.3349991       3.72133258E-09
   49.4500008       3.82367515E-09
   49.5649986       3.91896471E-09
   49.6800003       4.00673139E-09
   49.7949982       4.08653600E-09
   49.9099998       4.15796730E-09
   50.0250015       4.22064472E-09
   50.1399994       4.27421831E-09
   50.2550011       4.31836966E-09
   50.3699989       4.35280700E-09
   50.4850006       4.37726611E-09
   50.5999985       4.39150627E-09
   50.7150002       4.39530368E-09
   50.8300018       4.38844872E-09
   50.9449997       4.37074288E-09
   51.0600014       4.34198633E-09
   51.1749992       4.30198055E-09
   51.2900009       4.25051683E-09
   51.4049988       4.18737400E-09
   51.5200005       4.11231227E-09
   51.6349983       4.02507006E-09
   51.7500000       3.92536226E-09
   51.8650017       3.81287402E-09
   51.9799995       3.68726472E-09
   52.0950012       3.54816287E-09
   52.2099991       3.39517103E-09
   52.3250008       3.22786398E-09
   52.4399986       3.04579384E-09
   52.5550003       2.84849233E-09
   52.6699982       2.63547251E-09
   52.7849998       2.40623277E-09
   52.9000015       2.16025975E-09
   53.0149994       1.89703186E-09
   53.1300011       1.61602265E-09
   53.2449989       1.31670064E-09
   53.3600006       9.98532146E-10
   53.4749985       6.60983435E-10
   53.5900002       3.03519737E-10
   53.7050018      -7.43917150E-11
   53.8199997      -4.73282469E-10
   53.9350014      -8.93683183E-10
   54.0499992      -1.33612177E-09
   54.1650009      -1.80112414E-09
   54.2799988      -2.28921215E-09
   54.3950005      -2.80090240E-09
   54.5099983      -3.33670358E-09
   54.6250000      -3.89711152E-09
   54.7400017      -4.48260629E-09
   54.8549995      -5.09364773E-09
   54.9700012      -5.73066616E-09
   55.0849991      -6.39406172E-09
   55.2000008      -7.08419456E-09
   55.3149986      -7.80137910E-09
   55.4300003      -8.54588045E-09
   55.5449982      -9.31790645E-09
   55.6599998      -1.01176063E-08
   55.7750015      -1.09450644E-08
   55.8899994      -1.18003021E-08
   56.0050011      -1.26832678E-08
   56.1199989      -1.35938514E-08
   56.2350006      -1.45318761E-08
   56.3499985      -1.54971076E-08
   56.4650002      -1.64892597E-08
   56.5800018      -1.75079951E-08
   56.6949997      -1.85529423E-08
   56.8100014      -1.96236982E-08
   56.9249992      -2.07198383E-08
   57.0400009      -2.18409202E-08
   57.1549988      -2.29864874E-08
   57.2700005      -2.41560887E-08
   57.3849983      -2.53492640E-08
   57.5000000      -2.65655675E-08
   57.6150017      -2.78045587E-08
   57.7299995      -2.90658022E-08
   57.8450012      -3.03488790E-08
   57.9599991      -3.16533679E-08
   58.0750008      -3.29788676E-08
   58.1899986      -3.43249553E-08
   58.3050003      -3.56912153E-08
   58.4199982      -3.70772177E-08
   58.5349998      -3.84825221E-08
   58.6500015      -3.99066629E-08
   58.7649994      -4.13491676E-08
   58.8800011      -4.28095319E-08
   58.9949989      -4.42872370E-08
   59.1100006      -4.57817357E-08
   59.2249985      -4.72924739E-08
   59.3400002      -4.88188867E-08
   59.4550018      -5.03603843E-08
   59.5699997      -5.19164161E-08
   59.6850014      -5.34863922E-08
   59.7999992      -5.50697479E-08
   59.9150009      -5.66659466E-08
   60.0299988      -5.82744875E-08
   60.1450005      -5.98949015E-08
   60.2599983      -6.15267695E-08
   60.3750000      -6.31697290E-08
   60.4900017      -6.48234675E-08
   60.6049995      -6.64877220E-08
   60.7200012      -6.81622723E-08
   60.8349991      -6.98469549E-08
   60.9500008      -7.15416633E-08
   61.0649986      -7.32463263E-08
   61.1800003      -7.49609370E-08
   61.2949982      -7.66855237E-08
   61.4099998      -7.84201433E-08
   61.5250015      -8.01648952E-08
   61.6399994      -8.19199002E-08
   61.7550011      -8.36852934E-08
   61.8699989      -8.54612310E-08
   61.9850006      -8.72478481E-08
   62.0999985      -8.90453506E-08
   62.2150002      -9.08539164E-08
   62.3300018      -9.26737513E-08
   62.4449997      -9.45051113E-08
   62.5600014      -9.63482591E-08
   62.6749992      -9.82034862E-08
   62.7900009      -1.00071084E-07
   62.9049988      -1.01951365E-07
   63.0200005      -1.03844691E-07
   63.1349983      -1.05751461E-07
   63.2500000      -1.07672058E-07
   63.3650017      -1.09606944E-07
   63.4799995      -1.11556581E-07
   63.5950012      -1.13521452E-07
   63.7099991      -1.15502047E-07
   63.8250008      -1.17498836E-07
   63.9399986      -1.19512279E-07
   64.0550003      -1.21542826E-07
   64.1699982      -1.23590837E-07
   64.2850037      -1.25656683E-07
   64.4000015      -1.27740620E-07
   64.5149994      -1.29842817E-07
   64.6299973      -1.31963390E-07
   64.7450027      -1.34102294E-07
   64.8600006      -1.36259402E-07
   64.9749985      -1.38434416E-07
   65.0899963      -1.40626881E-07
   65.2050018      -1.42836228E-07
   65.3199997      -1.45061733E-07
   65.4349976      -1.47302444E-07
   65.5500031      -1.49557323E-07
   65.6650009      -1.51825120E-07
   65.7799988      -1.54104470E-07
   65.8949966      -1.56393838E-07
   66.0100021      -1.58691591E-07
   66.1250000      -1.60995910E-07
   66.2399979      -1.63304890E-07
   66.3550034      -1.65616498E-07
   66.4700012      -1.67928619E-07
   66.5849991      -1.70239034E-07
   66.6999969      -1.72545441E-07
   66.8150024      -1.74845496E-07
   66.9300003      -1.77136812E-07
   67.0449982      -1.79416915E-07
   67.1600037      -1.81683347E-07
   67.2750015      -1.83933622E-07
   67.3899994      -1.86165195E-07
   67.5049973      -1.88375552E-07
   67.6200027      -1.90562091E-07
   67.7350006      -1.92722183E-07
   67.8499985      -1.94853328E-07
   67.9649963      -1.96952868E-07
   68.0800018      -1.99018274E-07
   68.1949997      -2.01047001E-07
   68.3099976      -2.03036606E-07
   68.4250031      -2.04984644E-07
   68.5400009      -2.06888643E-07
   68.6549988      -2.08746201E-07
   68.7699966      -2.10554916E-07
   68.8850021      -2.12312429E-07
   69.0000000      -2.14016467E-07
   69.1149979      -2.15664954E-07
   69.2300034      -2.17255788E-07
   69.3450012      -2.18787079E-07
   69.4599991      -2.20257064E-07
   69.5749969      -2.21663996E-07
   69.6900024      -2.23006381E-07
   69.8050003      -2.24282687E-07
   69.9199982      -2.25491632E-07
   70.0350037      -2.26631997E-07
   70.1500015      -2.27702770E-07
   70.2649994      -2.28703058E-07
   70.3799973      -2.29632150E-07
   70.4950027      -2.30489519E-07
   70.6100006      -2.31274726E-07
   70.7249985      -2.31987471E-07
   70.8399963      -2.32627542E-07
   70.9550018      -2.33194783E-07
   71.0699997      -2.33689178E-07
   71.1849976      -2.34110672E-07
   71.3000031      -2.34459364E-07
   71.4150009      -2.34735538E-07
   71.5299988      -2.34939506E-07
   71.6449966      -2.35071624E-07
   71.7600021      -2.35132376E-07
   71.8750000      -2.35122130E-07
   71.9899979      -2.35041398E-07
   72.1050034      -2.34890678E-07
   72.2200012      -2.34670438E-07
   72.3349991      -2.34381346E-07
   72.4499969      -2.34023943E-07
   72.5650024      -2.33598996E-07
   72.6800003      -2.33107201E-07
   72.7949982      -2.32549482E-07
   72.9100037      -2.31926634E-07
   73.0250015      -2.31239397E-07
   73.1399994      -2.30488652E-07
   73.2549973      -2.29675265E-07
   73.3700027      -2.28800047E-07
   73.4850006      -2.27863964E-07
   73.5999985      -2.26867954E-07
   73.7149963      -2.25812840E-07
   73.8300018      -2.24699662E-07
   73.9449997      -2.23529241E-07
   74.0599976      -2.22302404E-07
   74.1750031      -2.21019917E-07
   74.2900009      -2.19682533E-07
   74.4049988      -2.18291021E-07
   74.5199966      -2.16845876E-07
   74.6350021      -2.15347782E-07
   74.7500000      -2.13797165E-07
   74.8649979      -2.12194436E-07
   74.9800034      -2.10539952E-07
   75.0950012      -2.08833839E-07
   75.2099991      -2.07076354E-07
   75.3249969      -2.05267654E-07
   75.4400024      -2.03407708E-07
   75.5550003      -2.01496420E-07
   75.6699982      -1.99533574E-07
   75.7850037      -1.97518929E-07
   75.9000015      -1.95452131E-07
   76.0149994      -1.93332710E-07
   76.1299973      -1.91160055E-07
   76.2450027      -1.88933569E-07
   76.3600006      -1.86652528E-07
   76.4749985      -1.84315866E-07
   76.5899963      -1.81922701E-07
   76.7050018      -1.79471499E-07
   76.8199997      -1.76960938E-07
   76.9349976      -1.74389186E-07
   77.0500031      -1.71754508E-07
   77.1650009      -1.69054772E-07
   77.2799988      -1.66287748E-07
   77.3949966      -1.63451077E-07
   77.5100021      -1.60542243E-07
   77.6250000      -1.57558503E-07
   77.7399979      -1.54497030E-07
   77.8550034      -1.51354769E-07
   77.9700012      -1.48128677E-07
   78.0849991      -1.44815658E-07
   78.1999969      -1.41412556E-07
   78.3150024      -1.37916217E-07
   78.4300003      -1.34323571E-07
   78.5449982      -1.30631634E-07
   78.6600037      -1.26837719E-07
   78.7750015      -1.22939198E-07
   78.8899994      -1.18933727E-07
   79.0049973      -1.14819123E-07
   79.1200027      -1.10593341E-07
   79.2350006      -1.06254632E-07
   79.3499985      -1.01801582E-07
   79.4649963      -9.72329275E-08
   79.5800018      -9.25477792E-08
   79.6949997      -8.77456827E-08
   79.8099976      -8.28263609E-08
   79.9250031      -7.77899132E-08
   80.0400009      -7.26365670E-08
   80.1549988      -6.73669547E-08
   80.2699966      -6.19818579E-08
   80.3850021      -5.64823424E-08
   80.5000000      -5.08693105E-08
   80.6149979      -4.51442368E-08
   80.7300034      -3.93087092E-08
   80.8450012      -3.33645502E-08
   80.9599991      -2.73137086E-08
   81.0749969      -2.11582378E-08
   81.1900024      -1.49003707E-08
   81.3050003      -8.54235438E-09
   81.4199982      -2.08642281E-09
   81.5350037       4.46511361E-09
   81.6500015       1.11097878E-08
   81.7649994       1.78452773E-08
   81.8799973       2.46689318E-08
   81.9950027       3.15781641E-08
   82.1100006       3.85704091E-08
   82.2249985       4.56428353E-08
   82.3399963       5.27928385E-08
   82.4550018       6.00178751E-08
   82.5699997       6.73153764E-08
   82.6849976       7.46830295E-08
   82.8000031       8.21183406E-08
   82.9150009       8.96190357E-08
   83.0299988       9.71827561E-08
   83.1449966       1.04807221E-07
   83.2600021       1.12490149E-07
   83.3750000       1.20229487E-07
   83.4899979       1.28023174E-07
   83.6050034       1.35869556E-07
   83.7200012       1.43767139E-07
   83.8349991       1.51714374E-07
   83.9499969       1.59710126E-07
   84.0650024       1.67753257E-07
   84.1800003       1.75842757E-07
   84.2949982       1.83977676E-07
   84.4100037       1.92157216E-07
   84.5250015       2.00380725E-07
   84.6399994       2.08647734E-07
   84.7549973       2.16957957E-07
   84.8700027       2.25311368E-07
   84.9850006       2.33707951E-07
   85.0999985       2.42147564E-07
   85.2149963       2.50630393E-07
   85.3300018       2.59156309E-07
   85.4449997       2.67725312E-07
   85.5599976       2.76337261E-07
   85.6750031       2.84992211E-07
   85.7900009       2.93690022E-07
   85.9049988       3.02430578E-07
   86.0199966       3.11213711E-07
   86.1350021       3.20039135E-07
   86.2500000       3.28906424E-07
   86.3649979       3.37814896E-07
   86.4800034       3.46763784E-07
   86.5950012       3.55752292E-07
   86.7099991       3.64779282E-07
   86.8249969       3.73843790E-07
   86.9400024       3.82944506E-07
   87.0550003       3.92080324E-07
   87.1699982       4.01249650E-07
   87.2850037       4.10451179E-07
   87.4000015       4.19683005E-07
   87.5149994       4.28943366E-07
   87.6299973       4.38230359E-07
   87.7450027       4.47541908E-07
   87.8600006       4.56875881E-07
   87.9749985       4.66230091E-07
   88.0899963       4.75602093E-07
   88.2050018       4.84989528E-07
   88.3199997       4.94389667E-07
   88.4349976       5.03799811E-07
   88.5500031       5.13217003E-07
   88.6650009       5.22638118E-07
   88.7799988       5.32060199E-07
   88.8949966       5.41479722E-07
   89.0100021       5.50893503E-07
   89.1250000       5.60297963E-07
   89.2399979       5.69689632E-07
   89.3550034       5.79064704E-07
   89.4700012       5.88419482E-07
   89.5849991       5.97750159E-07
   89.6999969       6.07052925E-07
   89.8150024       6.16323916E-07
   89.9300003       6.25559210E-07
   90.0449982       6.34755168E-07
   90.1600037       6.43907811E-07
   90.2750015       6.53013331E-07
   90.3899994       6.62068089E-07
   90.5049973       6.71068449E-07
   90.6200027       6.80010714E-07
   90.7350006       6.88891419E-07
   90.8499985       6.97706923E-07
   90.9649963       7.06453704E-07
   91.0800018       7.15128181E-07
   91.1949997       7.23726771E-07
   91.3099976       7.32246008E-07
   91.4250031       7.40682140E-07
   91.5400009       7.49031472E-07
   91.6549988       7.57290479E-07
   91.7699966       7.65455468E-07
   91.8850021       7.73522743E-07
   92.0000000       7.81488438E-07
   92.1149979       7.89348633E-07
   92.2300034       7.97099176E-07
   92.3450012       8.04736089E-07
   92.4599991       8.12255053E-07
   92.5749969       8.19651916E-07
   92.6900024       8.26922587E-07
   92.8050003       8.34062860E-07
   92.9199982       8.41068470E-07
   93.0350037       8.47935269E-07
   93.1500015       8.54659106E-07
   93.2649994       8.61235605E-07
   93.3799973       8.67660333E-07
   93.4950027       8.73929082E-07
   93.6100006       8.80037533E-07
   93.7249985       8.85981535E-07
   93.8399963       8.91757168E-07
   93.9550018       8.97360337E-07
   94.0699997       9.02787065E-07
   94.1849976       9.08033599E-07
   94.3000031       9.13096017E-07
   94.4150009       9.17970567E-07
   94.5299988       9.22653612E-07
   94.6449966       9.27141457E-07
   94.7600021       9.31430691E-07
   94.8750000       9.35518187E-07
   94.9899979       9.39400820E-07
   95.1050034       9.43075520E-07
   95.2200012       9.46539444E-07
   95.3349991       9.49789808E-07
   95.4499969       9.52823711E-07
   95.5650024       9.55638598E-07
   95.6800003       9.58231908E-07
   95.7949982       9.60601255E-07
   95.9100037       9.62744252E-07
   96.0250015       9.64658625E-07
   96.1399994       9.66342441E-07
   96.2549973       9.67793767E-07
   96.3700027       9.69010443E-07
   96.4850006       9.69990197E-07
   96.5999985       9.70731207E-07
   96.7149963       9.71231088E-07
   96.8300018       9.71488021E-07
   96.9449997       9.71499730E-07
   97.0599976       9.71264285E-07
   97.1750031       9.70779752E-07
   97.2900009       9.70043970E-07
   97.4049988       9.69054668E-07
   97.5199966       9.67809683E-07
   97.6350021       9.66306743E-07
   97.7500000       9.64543233E-07
   97.8649979       9.62516879E-07
   97.9800034       9.60224952E-07
   98.0950012       9.57665407E-07
   98.2099991       9.54835627E-07
   98.3249969       9.51733625E-07
   98.4400024       9.48356956E-07