   0.00000000       0.00000000    
  0.115000002       0.00000000    
  0.230000004       0.00000000    
  0.344999999       0.00000000    
  0.460000008       0.00000000    
  0.574999988       0.00000000    
  0.689999998       0.00000000    
  0.805000007       0.00000000    
  0.920000017       0.00000000    
   1.03499997       0.00000000    
   1.14999998       0.00000000    
   1.26499999       0.00000000    
   1.38000000       0.00000000    
   1.49500000       0.00000000    
   1.61000001       0.00000000    
   1.72500002       0.00000000    
   1.84000003       0.00000000    
   1.95500004       0.00000000    
   2.06999993       0.00000000    
   2.18499994       0.00000000    
   2.29999995       0.00000000    
   2.41499996       0.00000000    
   2.52999997       0.00000000    
   2.64499998       0.00000000    
   2.75999999       0.00000000    
   2.87500000       0.00000000    
   2.99000001       0.00000000    
   3.10500002       0.00000000    
   3.22000003       0.00000000    
   3.33500004       0.00000000    
   3.45000005       0.00000000    
   3.56500006       0.00000000    
   3.68000007       0.00000000    
   3.79500008       0.00000000    
   3.91000009       0.00000000    
   4.02500010       0.00000000    
   4.13999987       0.00000000    
   4.25500011       0.00000000    
   4.36999989       0.00000000    
   4.48500013       0.00000000    
   4.59999990       0.00000000    
   4.71500015       0.00000000    
   4.82999992       0.00000000    
   4.94500017       0.00000000    
   5.05999994       0.00000000    
   5.17500019       0.00000000    
   5.28999996       0.00000000    
   5.40500021       0.00000000    
   5.51999998       0.00000000    
   5.63500023       0.00000000    
   5.75000000       0.00000000    
   5.86499977       0.00000000    
   5.98000002       0.00000000    
   6.09499979       0.00000000    
   6.21000004       0.00000000    
   6.32499981       0.00000000    
   6.44000006       0.00000000    
   6.55499983       0.00000000    
   6.67000008       0.00000000    
   6.78499985       0.00000000    
   6.90000010       0.00000000    
   7.01499987       0.00000000    
   7.13000011       0.00000000    
   7.24499989       0.00000000    
   7.36000013       0.00000000    
   7.47499990       0.00000000    
   7.59000015       0.00000000    
   7.70499992       0.00000000    
   7.82000017       0.00000000    
   7.93499994       0.00000000    
   8.05000019       0.00000000    
   8.16499996       0.00000000    
   8.27999973       0.00000000    
   8.39500046       0.00000000    
   8.51000023       0.00000000    
   8.62500000       0.00000000    
   8.73999977       0.00000000    
   8.85499954       0.00000000    
   8.97000027       0.00000000    
   9.08500004       0.00000000    
   9.19999981       0.00000000    
   9.31499958       0.00000000    
   9.43000031       0.00000000    
   9.54500008       0.00000000    
   9.65999985       0.00000000    
   9.77499962       0.00000000    
   9.89000034       0.00000000    
   10.0050001       0.00000000    
   10.1199999       0.00000000    
   10.2349997       0.00000000    
   10.3500004       0.00000000    
   10.4650002       0.00000000    
   10.5799999       0.00000000    
   10.6949997       0.00000000    
   10.8100004       0.00000000    
   10.9250002       0.00000000    
   11.0400000       0.00000000    
   11.1549997       0.00000000    
   11.2700005       0.00000000    
   11.3850002       0.00000000    
   11.5000000       0.00000000    
   11.6149998       0.00000000    
   11.7299995       0.00000000    
   11.8450003       0.00000000    
   11.9600000       0.00000000    
   12.0749998       0.00000000    
   12.1899996       0.00000000    
   12.3050003       0.00000000    
   12.4200001       0.00000000    
   12.5349998       0.00000000    
   12.6499996       0.00000000    
   12.7650003       0.00000000    
   12.8800001       0.00000000    
   12.9949999       0.00000000    
   13.1099997       0.00000000    
   13.2250004       0.00000000    
   13.3400002       0.00000000    
   13.4549999       0.00000000    
   13.5699997       0.00000000    
   13.6850004       0.00000000    
   13.8000002       0.00000000    
   13.9150000       0.00000000    
   14.0299997       0.00000000    
   14.1450005       0.00000000    
   14.2600002       0.00000000    
   14.3750000       0.00000000    
   14.4899998       0.00000000    
   14.6049995       0.00000000    
   14.7200003       0.00000000    
   14.8350000       0.00000000    
   14.9499998       0.00000000    
   15.0649996       0.00000000    
   15.1800003       0.00000000    
   15.2950001       0.00000000    
   15.4099998       0.00000000    
   15.5249996       0.00000000    
   15.6400003       0.00000000    
   15.7550001       0.00000000    
   15.8699999       0.00000000    
   15.9849997       0.00000000    
   16.1000004       0.00000000    
   16.2150002       0.00000000    
   16.3299999       0.00000000    
   16.4449997       0.00000000    
   16.5599995       0.00000000    
   16.6749992       0.00000000    
   16.7900009       0.00000000    
   16.9050007       0.00000000    
   17.0200005       0.00000000    
   17.1350002       0.00000000    
   17.2500000       0.00000000    
   17.3649998       0.00000000    
   17.4799995       0.00000000    
   17.5949993       5.30951988E-42
   17.7099991       1.06176385E-41
   17.8250008       6.76785119E-41
   17.9400005       4.47812950E-41
   18.0550003       2.43839946E-41
   18.1700001      -1.32282575E-42
   18.2849998       3.35709073E-41
   18.3999996       1.36396787E-40
   18.5149994       2.18700651E-40
   18.6299992       4.02748593E-40
   18.7450008       5.82392253E-40
   18.8600006       7.79311121E-40
   18.9750004       8.29902200E-40
   19.0900002       7.29024125E-40
   19.2049999       3.91175269E-40
   19.3199997      -1.60179625E-40
   19.4349995      -5.78575116E-40
   19.5499992      -8.95585263E-40
   19.6650009      -1.10086007E-39
   19.7800007      -1.36615110E-39
   19.8950005      -1.65393716E-39
   20.0100002      -1.60821700E-39
   20.1250000      -1.46618979E-39
   20.2399998      -2.93775917E-39
   20.3549995      -6.47244767E-39
   20.4699993      -1.15468717E-38
   20.5849991      -1.96143179E-38
   20.7000008      -2.72707647E-38
   20.8150005      -2.98686740E-38
   20.9300003      -3.09781941E-38
   21.0450001      -2.49092349E-38
   21.1599998       2.45669621E-39
   21.2749996       3.10948578E-38
   21.3899994       6.62275122E-38
   21.5049992       9.11447401E-38
   21.6200008       1.23773016E-37
   21.7350006       1.43238857E-37
   21.8500004       1.55274497E-37
   21.9650002       1.74804831E-37
   22.0799999       1.79737895E-37
   22.1949997       2.15039114E-37
   22.3099995       2.09405110E-37
   22.4249992       1.73940477E-37
   22.5400009       1.25040878E-37
   22.6550007       7.49113364E-38
   22.7700005       9.49947516E-39
   22.8850002      -7.14110385E-38
   23.0000000      -1.85429409E-37
   23.1149998      -3.05638508E-37
   23.2299995      -3.72916664E-37
   23.3449993      -5.99781571E-37
   23.4599991      -8.68167401E-37
   23.5750008      -1.43932213E-36
   23.6900005      -2.01729671E-36
   23.8050003      -2.13833482E-36
   23.9200001      -1.94118338E-36
   24.0349998      -7.73483749E-37
   24.1499996       1.02499839E-36
   24.2649994       3.43424075E-36
   24.3799992       6.06506800E-36
   24.4950008       9.18532032E-36
   24.6100006       1.23295812E-35
   24.7250004       1.41874391E-35
   24.8400002       1.46643365E-35
   24.9549999       1.43220097E-35
   25.0699997       1.28657469E-35
   25.1849995       9.99987104E-36
   25.2999992       6.13321711E-36
   25.4150009       6.48301071E-37
   25.5300007      -6.16547648E-36
   25.6450005      -1.42238232E-35
   25.7600002      -2.24871596E-35
   25.8750000      -3.00873375E-35
   25.9899998      -3.64378826E-35
   26.1049995      -3.98014954E-35
   26.2199993      -4.04528387E-35
   26.3349991      -3.70358580E-35
   26.4500008      -2.93259266E-35
   26.5650005      -1.63160567E-35
   26.6800003       1.71833971E-36
   26.7950001       2.39294002E-35
   26.9099998       4.96484561E-35
   27.0249996       7.83384562E-35
   27.1399994       1.08220935E-34
   27.2549992       1.37529269E-34
   27.3700008       1.63239385E-34
   27.4850006       1.81857746E-34
   27.6000004       1.89996415E-34
   27.7150002       1.83709540E-34
   27.8299999       1.58689212E-34
   27.9449997       1.12231781E-34
   28.0599995       4.24931450E-35
   28.1749992      -5.20423032E-35
   28.2900009      -1.70202972E-34
   28.4050007      -3.08518089E-34
   28.5200005      -4.60023699E-34
   28.6350002      -6.15356829E-34
   28.7500000      -7.61622994E-34
   28.8649998      -8.83742806E-34
   28.9799995      -9.64687255E-34
   29.0949993      -9.85196050E-34
   29.2099991      -9.26687012E-34
   29.3250008      -7.72419726E-34
   29.4400005      -5.09143567E-34
   29.5550003      -1.30224949E-34
   29.6700001       3.62970385E-34
   29.7849998       9.58992077E-34
   29.8999996       1.63417151E-33
   30.0149994       2.35208118E-33
   30.1299992       3.06466016E-33
   30.2450008       3.71091040E-33
   30.3600006       4.22013933E-33
   30.4750004       4.51401292E-33
   30.5900002       4.51401108E-33
   30.7049999       4.14618347E-33
   30.8199997       3.34886035E-33
   30.9349995       2.07884688E-33
   31.0499992       3.22675128E-34
   31.1650009      -1.89666987E-33
   31.2800007      -4.51151646E-33
   31.3950005      -7.40569963E-33
   31.5100002      -1.04107731E-32
   31.6250000      -1.33069943E-32
   31.7399998      -1.58300930E-32
   31.8549995      -1.76810969E-32
   31.9699993      -1.85428400E-32
   32.0849991      -1.81016697E-32
   32.2000008      -1.60726709E-32
   32.3149986      -1.22318687E-32
   32.4300003      -6.45047309E-33
   32.5449982       1.27262729E-33
   32.6599998       1.07767118E-32
   32.7750015       2.17136743E-32
   32.8899994       3.35284696E-32
   33.0050011       4.54533514E-32
   33.1199989       5.65174451E-32
   33.2350006       6.55747643E-32
   33.3499985       7.13543644E-32
   33.4650002       7.25306933E-32
   33.5800018       6.78180130E-32
   33.6949997       5.60819362E-32
   33.8100014       3.64703088E-32
   33.9249992       8.54881426E-33
   34.0400009      -2.75587421E-32
   34.1549988      -7.10429524E-32
   34.2700005      -1.20301361E-31
   34.3849983      -1.72868293E-31
   34.5000000      -2.25392602E-31
   34.6150017      -2.73680899E-31
   34.7299995      -3.12807487E-31
   34.8450012      -3.37313253E-31
   34.9599991      -3.41486681E-31
   35.0750008      -3.19731102E-31
   35.1899986      -2.67007265E-31
   35.3050003      -1.79338402E-31
   35.4199982      -5.43518554E-32
   35.5349998       1.08167744E-31
   35.6500015       3.05760398E-31
   35.7649994       5.32845053E-31
   35.8800011       7.80394854E-31
   35.9949989       1.03578760E-30
   36.1100006       1.28286993E-30
   36.2249985       1.50228573E-30
   36.3400002       1.67209727E-30
   36.4550018       1.76871500E-30
   36.5699997       1.76814155E-30
   36.6850014       1.64750499E-30
   36.7999992       1.38683742E-30
   36.9150009       9.71030744E-31
   37.0299988       3.91868745E-31
   37.1450005      -3.49976665E-31
   37.2599983      -1.24313775E-30
   37.3750000      -2.26407415E-30
   37.4900017      -3.37609914E-30
   37.6049995      -4.52906237E-30
   37.7200012      -5.65983753E-30
   37.8349991      -6.69373729E-30
   37.9500008      -7.54693253E-30
   38.0649986      -8.12991002E-30
   38.1800003      -8.35193664E-30
   38.2949982      -8.12642679E-30
   38.4099998      -7.37704670E-30
   38.5250015      -6.04428964E-30
   38.6399994      -4.09219074E-30
   38.7550011      -1.51480954E-30
   38.8699989       1.65798945E-30
   38.9850006       5.35592090E-30
   39.0999985       9.46531223E-30
   39.2150002       1.38282477E-29
   39.3300018       1.82442245E-29
   39.4449997       2.24746259E-29
   39.5600014       2.62502175E-29
   39.6749992       2.92816734E-29
   39.7900009       3.12730247E-29
   39.9049988       3.19376120E-29
   40.0200005       3.10160876E-29
   40.1349983       2.82955942E-29
   40.2500000       2.36292917E-29
   40.3650017       1.69550266E-29
   40.4799995       8.31195102E-30
   40.5950012      -2.14610455E-30
   40.7099991      -1.41419035E-29
   40.8250008      -2.72717488E-29
   40.9399986      -4.10092085E-29
   41.0550003      -5.47162535E-29
   41.1699982      -6.76623606E-29
   41.2849998      -7.90513714E-29
   41.4000015      -8.80559245E-29
   41.5149994      -9.38582639E-29
   41.6300011      -9.56962330E-29
   41.7449989      -9.29124096E-29
   41.8600006      -8.50041922E-29
   41.9749985      -7.16721648E-29
   42.0900002      -5.28637978E-29
   42.2050018      -2.88098596E-29
   42.3199997      -5.02579024E-32
   42.4350014       3.25529647E-29
   42.5499992       6.78178855E-29
   42.6650009       1.04261818E-28
   42.7799988       1.40138234E-28
   42.8950005       1.73491585E-28
   43.0099983       2.02229433E-28
   43.1250000       2.24209807E-28
   43.2400017       2.37341736E-28
   43.3549995       2.39694765E-28
   43.4700012       2.29613990E-28
   43.5849991       2.05835063E-28
   43.7000008       1.67594520E-28
   43.8149986       1.14729898E-28
   43.9300003       4.77643085E-29
   44.0449982      -3.20293946E-29
   44.1599998      -1.22589209E-28
   44.2750015      -2.21052991E-28
   44.3899994      -3.23778796E-28
   44.5050011      -4.26397953E-28
   44.6199989      -5.23902104E-28
   44.7350006      -6.10762797E-28
   44.8499985      -6.81083891E-28
   44.9650002      -7.28782724E-28
   45.0800018      -7.47799164E-28
   45.1949997      -7.32326965E-28
   45.3100014      -6.77065005E-28
   45.4249992      -5.77483883E-28
   45.5400009      -4.30102623E-28
   45.6549988      -2.32771023E-28
   45.7700005       1.50470635E-29
   45.8849983       3.11995981E-28
   46.0000000       6.54563932E-28
   46.1150017       1.03683739E-27
   46.2299995       1.45028678E-27
   46.3450012       1.88359300E-27
   46.4599991       2.32253015E-27
   46.5750008       2.74991943E-27
   46.6899986       3.14567511E-27
   46.8050003       3.48695972E-27
   46.9199982       3.74847520E-27
   47.0349998       3.90291128E-27
   47.1500015       3.92156931E-27
   47.2649994       3.77518977E-27
   47.3800011       3.43499120E-27
   47.4949989       2.87393006E-27
   47.6100006       2.06818337E-27
   47.7249985       9.98837151E-28
   47.8400002      -3.46247080E-28
   47.9550018      -1.97043125E-27
   48.0699997      -3.86623195E-27
   48.1850014      -6.01326558E-27
   48.2999992      -8.37630998E-27
   48.4150009      -1.09036038E-26
   48.5299988      -1.35255256E-26
   48.6450005      -1.61537852E-26
   48.7599983      -1.86813078E-26
   48.8750000      -2.09829220E-26
   48.9900017      -2.29170395E-26
   49.1049995      -2.43284056E-26
   49.2200012      -2.50520499E-26
   49.3349991      -2.49184381E-26
   49.4500008      -2.37598896E-26
   49.5649986      -2.14181190E-26
   49.6800003      -1.77528463E-26
   49.7949982      -1.26511988E-26
   49.9099998      -6.03767020E-27
   50.0250015       2.11573978E-27
   50.1399994       1.17796547E-26
   50.2550011       2.28581877E-26
   50.3699989       3.51811010E-26
   50.4850006       4.84978188E-26
   50.5999985       6.24738887E-26
   50.7150002       7.66903886E-26
   50.8300018       9.06468603E-26
   50.9449997       1.03768070E-25
   51.0600014       1.15415010E-25
   51.1749992       1.24900187E-25
   51.2900009       1.31507254E-25
   51.4049988       1.34514626E-25
   51.5200005       1.33222904E-25
   51.6349983       1.26985035E-25
   51.7500000       1.15238798E-25
   51.8650017       9.75401364E-26
   51.9799995       7.35962728E-26
   52.0950012       4.32972193E-26
   52.2099991       6.74407434E-27
   52.3250008      -3.57274149E-26
   52.4399986      -8.35294183E-26
   52.5550003      -1.35812204E-25
   52.6699982      -1.91463148E-25
   52.7849998      -2.49115495E-25
   52.9000015      -3.07167522E-25
   53.0149994      -3.63812222E-25
   53.1300011      -4.17077515E-25
   53.2449989      -4.64876027E-25
   53.3600006      -5.05063609E-25
   53.4749985      -5.35504371E-25
   53.5900002      -5.54140914E-25
   53.7050018      -5.59066463E-25
   53.8199997      -5.48596800E-25
   53.9350014      -5.21338648E-25
   54.0499992      -4.76251796E-25
   54.1650009      -4.12701876E-25
   54.2799988      -3.30501436E-25
   54.3950005      -2.29936782E-25
   54.5099983      -1.11779828E-25
   54.6250000       2.27170155E-26
   54.7400017       1.71841737E-25
   54.8549995       3.33459319E-25
   54.9700012       5.05061489E-25
   55.0849991       6.83827083E-25
   55.2000008       8.66689330E-25
   55.3149986       1.05040517E-24
   55.4300003       1.23162220E-24
   55.5449982       1.40693747E-24
   55.6599998       1.57294338E-24
   55.7750015       1.72625564E-24
   55.8899994       1.86351902E-24
   56.0050011       1.98138982E-24
   56.1199989       2.07649115E-24
   56.2350006       2.14534490E-24
   56.3499985       2.18428189E-24
   56.4650002       2.18933652E-24
   56.5800018       2.15613454E-24
   56.6949997       2.07978405E-24
   56.8100014       1.95478470E-24
   56.9249992       1.77496859E-24
   57.0400009       1.53349215E-24
   57.1549988       1.22289395E-24
   57.2700005       8.35238334E-25
   57.3849983       3.62358893E-25
   57.5000000      -2.03784848E-25
   57.6150017      -8.70625352E-25
   57.7299995      -1.64437839E-24
   57.8450012      -2.52930973E-24
   57.9599991      -3.52688588E-24
   58.0750008      -4.63482958E-24
   58.1899986      -5.84610933E-24
   58.3050003      -7.14789706E-24
   58.4199982      -8.52055290E-24
   58.5349998      -9.93668366E-24
   58.6500015      -1.13603504E-23
   58.7649994      -1.27464879E-23
   58.8800011      -1.40406292E-23
   58.9949989      -1.51789965E-23
   59.1100006      -1.60890375E-23
   59.2249985      -1.66904871E-23
   59.3400002      -1.68970014E-23
   59.4550018      -1.66183915E-23
   59.5699997      -1.57635140E-23
   59.6850014      -1.42437751E-23
   59.7999992      -1.19772278E-23
   59.9150009      -8.89320843E-24
   60.0299988      -4.93738101E-24
   60.1450005      -7.70664041E-26
   60.2599983       5.69332275E-24
   60.3750000       1.23469590E-23
   60.4900017       1.98196270E-23
   60.6049995       2.80053731E-23
   60.7200012       3.67530611E-23
   60.8349991       4.58641332E-23
   60.9500008       5.50918368E-23
   61.0649986       6.41422802E-23
   61.1800003       7.26774270E-23
   61.2949982       8.03203091E-23
   61.4099998       8.66626498E-23
   61.5250015       9.12747850E-23
   61.6399994       9.37180892E-23
   61.7550011       9.35595471E-23
   61.8699989       9.03884146E-23
   61.9850006       8.38345266E-23
   62.0999985       7.35878104E-23
   62.2150002       5.94184738E-23
   62.3300018       4.11970775E-23
   62.4449997       1.89138395E-23
   62.5600014      -7.30372154E-24
   62.6749992      -3.71757170E-23
   62.7900009      -7.02582620E-23
   62.9049988      -1.05936232E-22
   63.0200005      -1.43421135E-22
   63.1349983      -1.81755029E-22
   63.2500000      -2.19820951E-22
   63.3650017      -2.56360407E-22
   63.4799995      -2.89998017E-22
   63.5950012      -3.19273491E-22
   63.7099991      -3.42680723E-22
   63.8250008      -3.58712977E-22
   63.9399986      -3.65914027E-22
   64.0550003      -3.62933294E-22
   64.1699982      -3.48584255E-22
   64.2850037      -3.21903894E-22
   64.4000015      -2.82211190E-22
   64.5149994      -2.29163058E-22
   64.6299973      -1.62804710E-22
   64.7450027      -8.36125412E-23
   64.8600006       7.47288330E-24
   64.9749985       1.09026068E-22
   65.0899963       2.19129934E-22
   65.2050018       3.35385135E-22
   65.3199997       4.54936614E-22
   65.4349976       5.74518183E-22
   65.5500031       6.90515825E-22
   65.6650009       7.99048747E-22
   65.7799988       8.96067935E-22
   65.8949966       9.77469798E-22
   66.0100021       1.03922350E-21
   66.1250000       1.07750746E-21
   66.2399979       1.08885292E-21
   66.3550034       1.07028912E-21
   66.4700012       1.01948546E-21
   66.5849991       9.34886152E-22
   66.6999969       8.15831163E-22
   66.8150024       6.62658407E-22
   66.9300003       4.76782230E-22
   67.0449982       2.60743192E-22
   67.1600037       1.82242788E-23
   67.2750015      -2.45969001E-22
   67.3899994      -5.25968023E-22
   67.5049973      -8.14940722E-22
   67.6200027      -1.10523214E-21
   67.7350006      -1.38854423E-21
   67.8499985      -1.65615119E-21
   67.9649963      -1.89914853E-21
   68.0800018      -2.10872491E-21
   68.1949997      -2.27645678E-21
   68.3099976      -2.39460730E-21
   68.4250031      -2.45643016E-21
   68.5400009      -2.45645864E-21
   68.6549988      -2.39077331E-21
   68.7699966      -2.25723756E-21
   68.8850021      -2.05568539E-21
   69.0000000      -1.78805611E-21
   69.1149979      -1.45846321E-21
   69.2300034      -1.07319061E-21
   69.3450012      -6.40612004E-22
   69.4599991      -1.71028654E-22
   69.5749969       3.23574108E-22
   69.6900024       8.29848250E-22
   69.8050003       1.33347654E-21
   69.9199982       1.81962832E-21
   70.0350037       2.27346552E-21
   70.1500015       2.68068133E-21
   70.2649994       3.02805498E-21
   70.3799973       3.30400049E-21
   70.4950027       3.49908587E-21
   70.6100006       3.60650343E-21
   70.7249985       3.62246341E-21
   70.8399963       3.54649043E-21
   70.9550018       3.38160441E-21
   71.0699997       3.13436667E-21
   71.1849976       2.81477789E-21
   71.3000031       2.43602146E-21
   71.4150009       2.01404908E-21
   71.5299988       1.56701087E-21
   71.6449966       1.11454570E-21
   71.7600021       6.76944590E-22
   71.8750000       2.74215043E-22
   71.9899979      -7.49205814E-23
   72.1050034      -3.54059278E-22
   72.2200012      -5.50134581E-22
   72.3349991      -6.54376908E-22
   72.4499969      -6.63162925E-22
   72.5650024      -5.78707704E-22
   72.6800003      -4.09551465E-22
   72.7949982      -1.70797663E-22
   72.9100037       1.15936439E-22
   73.0250015       4.22882886E-22
   73.1399994       7.16821824E-22
   73.2549973       9.60119503E-22
   73.3700027       1.11210041E-21
   73.4850006       1.13072823E-21
   73.5999985       9.74560327E-22
   73.7149963       6.04920504E-22
   73.8300018      -1.17770614E-23
   73.9449997      -9.01638581E-22
   74.0599976      -2.08092914E-21
   74.1750031      -3.55384256E-21
   74.2900009      -5.31051286E-21
   74.4049988      -7.32538226E-21
   74.5199966      -9.55603553E-21
   74.6350021      -1.19426018E-20
   74.7500000      -1.44078238E-20
   74.8649979      -1.68578633E-20
   74.9800034      -1.91839017E-20
   75.0950012      -2.12645550E-20
   75.2099991      -2.29691302E-20
   75.3249969      -2.41616549E-20
   75.4400024      -2.47056392E-20
   75.5550003      -2.44694549E-20
   75.6699982      -2.33321898E-20
   75.7850037      -2.11898163E-20
   75.9000015      -1.79614612E-20
   76.0149994      -1.35955567E-20
   76.1299973      -8.07560195E-21
   76.2450027      -1.42531166E-21
   76.3600006       6.28714942E-21
   76.4749985       1.49460890E-20
   76.5899963       2.43866028E-20
   76.7050018       3.43945221E-20
   76.8199997       4.47081363E-20
   76.9349976       5.50218442E-20
   77.0500031       6.49918004E-20
   77.1650009       7.42435830E-20
   77.2799988       8.23817283E-20
   77.3949966       8.90011701E-20
   77.5100021       9.37001247E-20
   77.6250000       9.60943214E-20
   77.7399979       9.58321051E-20
   77.8550034       9.26100169E-20
   77.9700012       8.61882778E-20
   78.0849991       7.64057491E-20
   78.1999969       6.31936649E-20
   78.3150024       4.65876393E-20
   78.4300003       2.67373693E-20
   78.5449982       3.91339229E-21
   78.6600037      -2.14895045E-20
   78.7750015      -4.89527264E-20
   78.8899994      -7.78384517E-20
   79.0049973      -1.07398643E-19
   79.1200027      -1.36788506E-19
   79.2350006      -1.65084467E-19
   79.3499985      -1.91306429E-19
   79.4649963      -2.14443795E-19
   79.5800018      -2.33485221E-19
   79.6949997      -2.47450693E-19
   79.8099976      -2.55425929E-19
   79.9250031      -2.56597501E-19
   80.0400009      -2.50288025E-19
   80.1549988      -2.35990105E-19
   80.2699966      -2.13397877E-19
   80.3850021      -1.82434968E-19
   80.5000000      -1.43277531E-19
   80.6149979      -9.63714463E-20
   80.7300034      -4.24424046E-20
   80.8450012       1.75019527E-20
   80.9599991       8.21785133E-20
   81.0749969       1.50044501E-19
   81.1900024       2.19322597E-19
   81.3050003       2.88035818E-19
   81.4199982       3.54051345E-19
   81.5350037       4.15133024E-19
   81.6500015       4.69001843E-19
   81.7649994       5.13402572E-19
   81.8799973       5.46175261E-19
   81.9950027       5.65330127E-19
   82.1100006       5.69123578E-19
   82.2249985       5.56132654E-19
   82.3399963       5.25326070E-19
   82.4550018       4.76129400E-19
   82.5699997       4.08481354E-19
   82.6849976       3.22879250E-19
   82.8000031       2.20410934E-19
   82.9150009       1.02771730E-19
   83.0299988      -2.77364613E-20
   83.1449966      -1.68224096E-19
   83.2600021      -3.15252749E-19
   83.3750000      -4.64893702E-19
   83.4899979      -6.12806417E-19
   83.6050034      -7.54336089E-19
   83.7200012      -8.84629030E-19
   83.8349991      -9.98762997E-19
   83.9499969      -1.09189113E-18
   84.0650024      -1.15939527E-18
   84.1800003      -1.19704460E-18
   84.2949982      -1.20115621E-18
   84.4100037      -1.16875140E-18
   84.5250015      -1.09770538E-18
   84.6399994      -9.86881271E-19
   84.7549973      -8.36246771E-19
   84.8700027      -6.46967115E-19
   84.9850006      -4.21468943E-19
   85.0999985      -1.63472098E-19
   85.2149963       1.22014672E-19
   85.3300018       4.28736733E-19
   85.4449997       7.49277932E-19
   85.5599976       1.07518570E-18
   85.6750031       1.39713680E-18
   85.7900009       1.70514339E-18
   85.9049988       1.98879386E-18
   86.0199966       2.23752707E-18
   86.1350021       2.44093079E-18
   86.2500000       2.58906146E-18
   86.3649979       2.67277421E-18
   86.4800034       2.68405612E-18
   86.5950012       2.61635284E-18
   86.7099991       2.46487663E-18
   86.8249969       2.22688829E-18
   86.9400024       1.90194135E-18
   87.0550003       1.49207697E-18
   87.1699982       1.00196388E-18
   87.2850037       4.38970534E-19
   87.4000015      -1.86833669E-19
   87.5149994      -8.62756875E-19
   87.6299973      -1.57364236E-18
   87.7450027      -2.30211127E-18
   87.8600006      -3.02888704E-18
   87.9749985      -3.73319680E-18
   88.0899963      -4.39324722E-18
   88.2050018      -4.98676379E-18
   88.3199997      -5.49158384E-18
   88.4349976      -5.88629127E-18
   88.5500031      -6.15087037E-18
   88.6650009      -6.26737297E-18
   88.7799988      -6.22057316E-18
   88.8949966      -5.99859221E-18
   89.0100021      -5.59347099E-18
   89.1250000      -5.00167703E-18
   89.2399979      -4.22452016E-18
   89.3550034      -3.26846171E-18
   89.4700012      -2.14530657E-18
   89.5849991      -8.72253581E-19
   89.6999969       5.28191734E-19
   89.8150024       2.02846110E-18
   89.9300003       3.59631909E-18
   90.0449982       5.19541389E-18
   90.1600037       6.78596972E-18
   90.2750015       8.32562415E-18
   90.3899994       9.77037864E-18
   90.5049973       1.10756564E-17
   90.6200027       1.21974473E-17
   90.7350006       1.30934899E-17
   90.8499985       1.37244980E-17
   90.9649963       1.40553719E-17
   91.0800018       1.40563662E-17
   91.1949997       1.37042023E-17
   91.3099976       1.29830547E-17
   91.4250031       1.18854273E-17
   91.5400009       1.04128391E-17
   91.6549988       8.57632770E-18
   91.7699966       6.39674939E-18
   91.8850021       3.90482478E-18
   92.0000000       1.14095379E-18
   92.1149979      -1.84522922E-18
   92.2300034      -4.99555051E-18
   92.3450012      -8.24424612E-18
   92.4599991      -1.15191468E-17
   92.5749969      -1.47430733E-17
   92.6900024      -1.78354467E-17
   92.8050003      -2.07140336E-17
   92.9199982      -2.32968455E-17
   93.0350037      -2.55041157E-17
   93.1500015      -2.72603161E-17
   93.2649994      -2.84961901E-17
   93.3799973      -2.91507117E-17
   93.4950027      -2.91729694E-17
   93.6100006      -2.85238841E-17
   93.7249985      -2.71777519E-17
   93.8399963      -2.51235365E-17
   93.9550018      -2.23658950E-17
   94.0699997      -1.89258808E-17
   94.1849976      -1.48413242E-17
   94.3000031      -1.01668355E-17
   94.4150009      -4.97343584E-18
   94.5299988       6.52200790E-19
   94.6449966       6.60887862E-18
   94.7600021       1.27823988E-17
   94.8750000       1.90474334E-17
   94.9899979       2.52697175E-17
   95.1050034       3.13085645E-17
   95.2200012       3.70196114E-17
   95.3349991       4.22577988E-17
   95.4499969       4.68804910E-17
   95.5650024       5.07507003E-17
   95.6800003       5.37403362E-17
   95.7949982       5.57334577E-17
   95.9100037       5.66293671E-17
   96.0250015       5.63455978E-17
   96.1399994       5.48206473E-17
   96.2549973       5.20163793E-17
   96.3700027       4.79201114E-17
   96.4850006       4.25462466E-17
   96.5999985       3.59374440E-17
   96.7149963       2.81652418E-17
   96.8300018       1.93301571E-17
   96.9449997       9.56115653E-18
   97.0599976      -9.85483853E-19
   97.1750031      -1.21279402E-17
   97.2900009      -2.36612301E-17
   97.4049988      -3.53602275E-17
   97.5199966      -4.69832632E-17
   97.6350021      -5.82762638E-17
   97.7500000      -6.89774531E-17
   97.8649979      -7.88223847E-17
   97.9800034      -8.75494578E-17
   98.0950012      -9.49056081E-17
   98.2099991      -1.00652224E-16
   98.3249969      -1.04571127E-16
   98.4400024      -1.06470414E-16