   0.00000000       0.00000000    
  0.115000002       0.00000000    
  0.230000004       0.00000000    
  0.344999999       0.00000000    
  0.460000008       0.00000000    
  0.574999988       0.00000000    
  0.689999998       0.00000000    
  0.805000007       0.00000000    
  0.920000017       0.00000000    
   1.03499997       0.00000000    
   1.14999998       0.00000000    
   1.26499999       0.00000000    
   1.38000000       0.00000000    
   1.49500000       0.00000000    
   1.61000001       0.00000000    
   1.72500002       0.00000000    
   1.84000003       0.00000000    
   1.95500004       0.00000000    
   2.06999993       0.00000000    
   2.18499994       0.00000000    
   2.29999995       0.00000000    
   2.41499996       0.00000000    
   2.52999997       0.00000000    
   2.64499998       0.00000000    
   2.75999999       0.00000000    
   2.87500000       0.00000000    
   2.99000001       0.00000000    
   3.10500002       0.00000000    
   3.22000003       0.00000000    
   3.33500004       0.00000000    
   3.45000005       0.00000000    
   3.56500006       0.00000000    
   3.68000007       0.00000000    
   3.79500008       0.00000000    
   3.91000009       0.00000000    
   4.02500010       0.00000000    
   4.13999987       0.00000000    
   4.25500011       0.00000000    
   4.36999989       0.00000000    
   4.48500013       0.00000000    
   4.59999990       0.00000000    
   4.71500015       0.00000000    
   4.82999992       0.00000000    
   4.94500017       0.00000000    
   5.05999994       0.00000000    
   5.17500019       0.00000000    
   5.28999996       0.00000000    
   5.40500021       0.00000000    
   5.51999998       0.00000000    
   5.63500023       0.00000000    
   5.75000000       0.00000000    
   5.86499977       0.00000000    
   5.98000002       0.00000000    
   6.09499979       0.00000000    
   6.21000004       0.00000000    
   6.32499981       0.00000000    
   6.44000006       0.00000000    
   6.55499983       0.00000000    
   6.67000008       0.00000000    
   6.78499985       0.00000000    
   6.90000010       0.00000000    
   7.01499987       0.00000000    
   7.13000011       0.00000000    
   7.24499989       0.00000000    
   7.36000013       0.00000000    
   7.47499990       0.00000000    
   7.59000015       0.00000000    
   7.70499992       0.00000000    
   7.82000017       0.00000000    
   7.93499994       0.00000000    
   8.05000019       0.00000000    
   8.16499996       0.00000000    
   8.27999973       0.00000000    
   8.39500046       0.00000000    
   8.51000023       0.00000000    
   8.62500000       0.00000000    
   8.73999977       0.00000000    
   8.85499954       0.00000000    
   8.97000027       0.00000000    
   9.08500004       0.00000000    
   9.19999981       0.00000000    
   9.31499958       0.00000000    
   9.43000031       0.00000000    
   9.54500008       0.00000000    
   9.65999985       0.00000000    
   9.77499962       0.00000000    
   9.89000034       0.00000000    
   10.0050001       0.00000000    
   10.1199999       0.00000000    
   10.2349997       0.00000000    
   10.3500004       0.00000000    
   10.4650002       0.00000000    
   10.5799999       0.00000000    
   10.6949997       0.00000000    
   10.8100004       0.00000000    
   10.9250002       0.00000000    
   11.0400000       0.00000000    
   11.1549997       0.00000000    
   11.2700005       0.00000000    
   11.3850002       0.00000000    
   11.5000000       0.00000000    
   11.6149998       0.00000000    
   11.7299995       0.00000000    
   11.8450003       0.00000000    
   11.9600000       0.00000000    
   12.0749998       0.00000000    
   12.1899996       0.00000000    
   12.3050003       0.00000000    
   12.4200001       0.00000000    
   12.5349998       0.00000000    
   12.6499996       0.00000000    
   12.7650003       0.00000000    
   12.8800001       0.00000000    
   12.9949999       0.00000000    
   13.1099997       0.00000000    
   13.2250004       0.00000000    
   13.3400002       0.00000000    
   13.4549999       0.00000000    
   13.5699997       0.00000000    
   13.6850004       0.00000000    
   13.8000002       0.00000000    
   13.9150000       0.00000000    
   14.0299997       0.00000000    
   14.1450005       0.00000000    
   14.2600002       0.00000000    
   14.3750000       0.00000000    
   14.4899998       0.00000000    
   14.6049995       0.00000000    
   14.7200003       0.00000000    
   14.8350000       0.00000000    
   14.9499998       0.00000000    
   15.0649996       0.00000000    
   15.1800003       0.00000000    
   15.2950001       0.00000000    
   15.4099998       0.00000000    
   15.5249996       0.00000000    
   15.6400003       0.00000000    
   15.7550001       0.00000000    
   15.8699999       0.00000000    
   15.9849997       0.00000000    
   16.1000004       0.00000000    
   16.2150002       0.00000000    
   16.3299999       0.00000000    
   16.4449997       0.00000000    
   16.5599995       2.67227617E-42
   16.6749992       5.34315104E-42
   16.7900009       8.01542722E-42
   16.9050007       1.06877034E-41
   17.0200005       1.33585783E-41
   17.1350002       1.60308544E-41
   17.2500000       1.87031306E-41
   17.3649998       1.60308544E-41
   17.4799995       8.52549986E-42
   17.5949993      -3.75547988E-42
   17.7099991      -1.60378609E-41
   17.8250008      -8.86349305E-41
   17.9400005      -2.09068126E-40
   18.0550003      -3.25542653E-40
   18.1700001      -4.35756178E-40
   18.2849998      -4.20486229E-40
   18.3999996      -3.41056428E-40
   18.5149994      -2.52753605E-40
   18.6299992      -3.82761873E-40
   18.7450008      -5.31572763E-40
   18.8600006      -7.46262898E-40
   18.9750004      -8.36100143E-40
   19.0900002      -7.17208376E-40
   19.2049999      -2.20918907E-40
   19.3199997       2.51433582E-40
   19.4349995       7.19706891E-40
   19.5499992       1.19421738E-39
   19.6650009       1.46981215E-39
   19.7800007       1.30038255E-39
   19.8950005       6.73724683E-40
   20.0100002      -3.83915142E-40
   20.1250000      -4.67422721E-40
   20.2399998      -2.00944798E-40
   20.3549995       4.29982829E-40
   20.4699993       1.39327463E-39
   20.5849991       4.09606688E-39
   20.7000008       4.04326455E-39
   20.8150005       1.54342572E-38
   20.9300003       2.59089885E-38
   21.0450001       1.69880548E-38
   21.1599998      -2.88070615E-38
   21.2749996      -7.71800834E-38
   21.3899994      -8.46236912E-38
   21.5049992      -5.60598979E-38
   21.6200008      -2.06725379E-38
   21.7350006       2.97635850E-38
   21.8500004       3.89309720E-38
   21.9650002       3.16755418E-38
   22.0799999       2.34800534E-38
   22.1949997      -2.66429045E-38
   22.3099995      -3.09866467E-38
   22.4249992       6.05113748E-39
   22.5400009       4.90033625E-38
   22.6550007       8.59659277E-38
   22.7700005       1.29956644E-37
   22.8850002       4.65179926E-37
   23.0000000       7.51724835E-37
   23.1149998       1.40234614E-36
   23.2299995       2.04277514E-36
   23.3449993       1.69948635E-36
   23.4599991       9.81391779E-37
   23.5750008       3.36785046E-37
   23.6900005      -5.80473562E-37
   23.8050003      -1.61841300E-36
   23.9200001      -3.36516468E-36
   24.0349998      -5.56720553E-36
   24.1499996      -7.49913236E-36
   24.2649994      -8.79585674E-36
   24.3799992      -8.95051776E-36
   24.4950008      -8.66108887E-36
   24.6100006      -8.08190966E-36
   24.7250004      -7.70503902E-36
   24.8400002      -7.44690738E-36
   24.9549999      -7.48162192E-36
   25.0699997      -6.96877663E-36
   25.1849995      -4.52451284E-36
   25.2999992       6.66699829E-37
   25.4150009       8.90046813E-36
   25.5300007       1.99519101E-35
   25.6450005       3.16624655E-35
   25.7600002       4.18969031E-35
   25.8750000       4.92489889E-35
   25.9899998       5.19998580E-35
   26.1049995       5.08193299E-35
   26.2199993       4.60038410E-35
   26.3349991       3.76889547E-35
   26.4500008       2.72202477E-35
   26.5650005       1.38959647E-35
   26.6800003      -2.48987482E-36
   26.7950001      -2.20062745E-35
   26.9099998      -4.44083169E-35
   27.0249996      -6.93192807E-35
   27.1399994      -9.59276686E-35
   27.2549992      -1.21184984E-34
   27.3700008      -1.42012758E-34
   27.4850006      -1.55277627E-34
   27.6000004      -1.56874611E-34
   27.7150002      -1.43386606E-34
   27.8299999      -1.13423748E-34
   27.9449997      -6.79387980E-35
   28.0599995      -8.73296952E-36
   28.1749992       6.07033778E-35
   28.2900009       1.35036417E-34
   28.4050007       2.07795649E-34
   28.5200005       2.70737586E-34
   28.6350002       3.14129238E-34
   28.7500000       3.27527807E-34
   28.8649998       2.99133466E-34
   28.9799995       2.17273600E-34
   29.0949993       7.23263077E-35
   29.2099991      -1.42797447E-34
   29.3250008      -4.28849589E-34
   29.4400005      -7.79571323E-34
   29.5550003      -1.18072934E-33
   29.6700001      -1.60810639E-33
   29.7849998      -2.02666026E-33
   29.8999996      -2.39061333E-33
   30.0149994      -2.64530990E-33
   30.1299992      -2.72620613E-33
   30.2450008      -2.56439603E-33
   30.3600006      -2.09189487E-33
   30.4750004      -1.24473492E-33
   30.5900002       2.94640787E-35
   30.7049999       1.76422710E-33
   30.8199997       3.96682287E-33
   30.9349995       6.60748828E-33
   31.0499992       9.61161764E-33
   31.1650009       1.28564669E-32
   31.2800007       1.61639951E-32
   31.3950005       1.92997688E-32
   31.5100002       2.19776580E-32
   31.6250000       2.38666642E-32
   31.7399998       2.46049114E-32
   31.8549995       2.38172009E-32
   31.9699993       2.11377086E-32
   32.0849991       1.62430118E-32
   32.2000008       8.88222339E-33
   32.3149986      -1.08835018E-33
   32.4300003      -1.36672348E-32
   32.5449982      -2.86754588E-32
   32.6599998      -4.57276001E-32
   32.7750015      -6.42111379E-32
   32.8899994      -8.32792080E-32
   33.0050011      -1.01854940E-31
   33.1199989      -1.18657115E-31
   33.2350006      -1.32244431E-31
   33.3499985      -1.41082209E-31
   33.4650002      -1.43625285E-31
   33.5800018      -1.38423311E-31
   33.6949997      -1.24239056E-31
   33.8100014      -1.00172690E-31
   33.9249992      -6.57891803E-32
   34.0400009      -2.12371466E-32
   34.1549988       3.26523972E-32
   34.2700005       9.42976396E-32
   34.3849983       1.61338069E-31
   34.5000000       2.30660979E-31
   34.6150017       2.98486181E-31
   34.7299995       3.60520379E-31
   34.8450012       4.12176703E-31
   34.9599991       4.48860120E-31
   35.0750008       4.66311227E-31
   35.1899986       4.60985203E-31
   35.3050003       4.30452207E-31
   35.4199982       3.73789595E-31
   35.5349998       2.91926240E-31
   35.6500015       1.87912246E-31
   35.7649994       6.70680418E-32
   35.8800011      -6.30206737E-32
   35.9949989      -1.92696309E-31
   36.1100006      -3.10633292E-31
   36.2249985      -4.04470726E-31
   36.3400002      -4.61669764E-31
   36.4550018      -4.70580293E-31
   36.5699997      -4.21668255E-31
   36.6850014      -3.08857026E-31
   36.7999992      -1.30888910E-31
   36.9150009       1.07390496E-31
   37.0299988       3.93946690E-31
   37.1450005       7.08796809E-31
   37.2599983       1.02371264E-30
   37.3750000       1.30251329E-30
   37.4900017       1.50205928E-30
   37.6049995       1.57403518E-30
   37.7200012       1.46756304E-30
   37.8349991       1.13263949E-30
   37.9500008       5.24326387E-31
   38.0649986      -3.92439283E-31
   38.1800003      -1.63763441E-30
   38.2949982      -3.21081900E-30
   38.4099998      -5.08605222E-30
   38.5250015      -7.20745728E-30
   38.6399994      -9.48589335E-30
   38.7550011      -1.17972169E-29
   38.8699989      -1.39825854E-29
   38.9850006      -1.58512159E-29
   39.0999985      -1.71859501E-29
   39.2150002      -1.77518019E-29
   39.3300018      -1.73075831E-29
   39.4449997      -1.56204278E-29
   39.5600014      -1.24828675E-29
   39.6749992      -7.73185039E-30
   39.7900009      -1.26885785E-30
   39.9049988       6.91997237E-30
   40.0200005       1.67449904E-29
   40.1349983       2.79969066E-29
   40.2500000       4.03349254E-29
   40.3650017       5.32807135E-29
   40.4799995       6.62196405E-29
   40.5950012       7.84105965E-29
   40.7099991       8.90053477E-29
   40.8250008       9.70779493E-29
   40.9399986       1.01664281E-28
   41.0550003       1.01810904E-28
   41.1699982       9.66322891E-29
   41.2849998       8.53739707E-29
   41.4000015       6.74791565E-29
   41.5149994       4.26553580E-29
   41.6300011       1.09368777E-29
   41.7449989      -2.72608553E-29
   41.8600006      -7.11000794E-29
   41.9749985      -1.19296711E-28
   42.0900002      -1.70118138E-28
   42.2050018      -2.21405942E-28
   42.3199997      -2.70626283E-28
   42.4350014      -3.14949466E-28
   42.5499992      -3.51357800E-28
   42.6650009      -3.76780629E-28
   42.7799988      -3.88251949E-28
   42.8950005      -3.83085281E-28
   43.0099983      -3.59058125E-28
   43.1250000      -3.14596708E-28
   43.2400017      -2.48950423E-28
   43.3549995      -1.62344760E-28
   43.4700012      -5.61010272E-29
   43.5849991       6.72884534E-29
   43.7000008       2.04140076E-28
   43.8149986       3.49621068E-28
   43.9300003       4.97860835E-28
   44.0449982       6.42132681E-28
   44.1599998       7.75104951E-28
   44.2750015       8.89156018E-28
   44.3899994       9.76741727E-28
   44.5050011       1.03080094E-27
   44.6199989       1.04518186E-27
   44.7350006       1.01506321E-27
   44.8499985       9.37349622E-28
   44.9650002       8.11011700E-28
   45.0800018       6.37346071E-28
   45.1949997       4.20132277E-28
   45.3100014       1.65663547E-28
   45.4249992      -1.17362475E-28
   45.5400009      -4.18102298E-28
   45.6549988      -7.23975411E-28
   45.7700005      -1.02121328E-27
   45.8849983      -1.29553263E-27
   46.0000000      -1.53290157E-27
   46.1150017      -1.72036273E-27
   46.2299995      -1.84686879E-27
   46.3450012      -1.90407565E-27
   46.4599991      -1.88704157E-27
   46.5750008      -1.79477142E-27
   46.6899986      -1.63056047E-27
   46.8050003      -1.40208538E-27
   46.9199982      -1.12120814E-27
   47.0349998      -8.03476258E-28
   47.1500015      -4.67310482E-28
   47.2649994      -1.32899903E-28
   47.3800011       1.79158514E-28
   47.4949989       4.49417149E-28
   47.6100006       6.61244117E-28
   47.7249985       8.02509441E-28
   47.8400002       8.67164787E-28
   47.9550018       8.56597787E-28
   48.0699997       7.80633862E-28
   48.1850014       6.58060410E-28
   48.2999992       5.16563782E-28
   48.4150009       3.91991720E-28
   48.5299988       3.26885634E-28
   48.6450005       3.68260387E-28
   48.7599983       5.64661523E-28
   48.8750000       9.62571697E-28
   48.9900017       1.60230265E-27
   49.1049995       2.51353464E-27
   49.2200012       3.71076241E-27
   49.3349991       5.18887666E-27
   49.4500008       6.91921995E-27
   49.5649986       8.84640560E-27
   49.6800003       1.08862327E-26
   49.7949982       1.29250052E-26
   49.9099998       1.48204978E-26
   50.0250015       1.64048155E-26
   50.1399994       1.74892589E-26
   50.2550011       1.78712263E-26
   50.3699989       1.73431224E-26
   50.4850006       1.57030713E-26
   50.5999985       1.27671236E-26
   50.7150002       8.38256848E-27
   50.8300018       2.44174907E-27
   50.9449997      -5.10417272E-27
   51.0600014      -1.42322587E-26
   51.1749992      -2.48364058E-26
   51.2900009      -3.67182704E-26
   51.4049988      -4.95812545E-26
   51.5200005      -6.30282853E-26
   51.6349983      -7.65638381E-26
   51.7500000      -8.96008492E-26
   51.8650017      -1.01472534E-25
   51.9799995      -1.11449258E-25
   52.0950012      -1.18760347E-25
   52.2099991      -1.22620354E-25
   52.3250008      -1.22258957E-25
   52.4399986      -1.16953929E-25
   52.5550003      -1.06065874E-25
   52.6699982      -8.90734526E-26
   52.7849998      -6.56079653E-26
   52.9000015      -3.54857060E-26
   53.0149994       1.26329064E-27
   53.1300011       4.43713243E-26
   53.2449989       9.33150714E-26
   53.3600006       1.47304662E-25
   53.4749985       2.05280281E-25
   53.5900002       2.65917098E-25
   53.7050018       3.27637822E-25
   53.8199997       3.88633779E-25
   53.9350014       4.46892760E-25
   54.0499992       5.00233808E-25
   54.1650009       5.46347560E-25
   54.2799988       5.82841202E-25
   54.3950005       6.07286572E-25
   54.5099983       6.17271283E-25
   54.6250000       6.10450841E-25
   54.7400017       5.84602679E-25
   54.8549995       5.37680197E-25
   54.9700012       4.67868768E-25
   55.0849991       3.73642760E-25
   55.2000008       2.53825709E-25
   55.3149986       1.07654221E-25
   55.4300003      -6.51525152E-26
   55.5449982      -2.64316598E-25
   55.6599998      -4.88916711E-25
   55.7750015      -7.37295434E-25
   55.8899994      -1.00695689E-24
   56.0050011      -1.29445744E-24
   56.1199989      -1.59529142E-24
   56.2350006      -1.90377518E-24
   56.3499985      -2.21293785E-24
   56.4650002      -2.51442373E-24
   56.5800018      -2.79841937E-24
   56.6949997      -3.05361430E-24
   56.8100014      -3.26721200E-24
   56.9249992      -3.42500252E-24
   57.0400009      -3.51151532E-24
   57.1549988      -3.51026379E-24
   57.2700005      -3.40409849E-24
   57.3849983      -3.17567889E-24
   57.5000000      -2.80807109E-24
   57.6150017      -2.28547500E-24
   57.7299995      -1.59408190E-24
   57.8450012      -7.23044120E-25
   57.9599991       3.34451558E-25
   58.0750008       1.58004175E-24
   58.1899986       3.00900895E-24
   58.3050003       4.60911508E-24
   58.4199982       6.35950237E-24
   58.5349998       8.22972671E-24
   58.6500015       1.01789902E-23
   58.7649994       1.21556453E-23
   58.8800011       1.40970674E-23
   58.9949989       1.59299400E-23
   59.1100006       1.75710405E-23
   59.2249985       1.89285928E-23
   59.3400002       1.99042181E-23
   59.4550018       2.03955112E-23
   59.5699997       2.02992575E-23
   59.6850014       1.95152497E-23
   59.7999992       1.79506703E-23
   59.9150009       1.55249293E-23
   60.0299988       1.21748509E-23
   60.1450005       7.86004361E-24
   60.2599983       2.56825461E-24
   60.3750000      -3.67950483E-24
   60.4900017      -1.08243084E-23
   60.6049995      -1.87654137E-23
   60.7200012      -2.73573806E-23
   60.8349991      -3.64084804E-23
   60.9500008      -4.56806663E-23
   61.0649986      -5.48913273E-23
   61.1800003      -6.37170337E-23
   61.2949982      -7.17993617E-23
   61.4099998      -7.87529813E-23
   61.5250015      -8.41758636E-23
   61.6399994      -8.76616254E-23
   61.7550011      -8.88137536E-23
   61.8699989      -8.72613763E-23
   61.9850006      -8.26762832E-23
   62.0999985      -7.47905961E-23
   62.2150002      -6.34145529E-23
   62.3300018      -4.84536480E-23
   62.4449997      -2.99244981E-23
   62.5600014      -7.96859087E-24
   62.6749992       1.71368688E-23
   62.7900009       4.49717580E-23
   62.9049988       7.49702670E-23
   63.0200005       1.06423054E-22
   63.1349983       1.38484961E-22
   63.2500000       1.70188700E-22
   63.3650017       2.00464399E-22
   63.4799995       2.28165155E-22
   63.5950012       2.52098413E-22
   63.7099991       2.71062402E-22
   63.8250008       2.83886730E-22
   63.9399986       2.89476611E-22
   64.0550003       2.86858729E-22
   64.1699982       2.75227688E-22
   64.2850037       2.53991502E-22
   64.4000015       2.22813523E-22
   64.5149994       1.81650180E-22
   64.6299973       1.30781412E-22
   64.7450027       7.08327358E-23
   64.8600006       2.78722287E-24
   64.9749985      -7.20143358E-23
   65.0899963      -1.51885878E-22
   65.2050018      -2.34821980E-22
   65.3199997      -3.18537616E-22
   65.4349976      -4.00521317E-22
   65.5500031      -4.78101306E-22
   65.6650009      -5.48523083E-22
   65.7799988      -6.09036263E-22
   65.8949966      -6.56989464E-22
   66.0100021      -6.89928761E-22
   66.1250000      -7.05697750E-22
   66.2399979      -7.02534884E-22
   66.3550034      -6.79164255E-22
   66.4700012      -6.34876115E-22
   66.5849991      -5.69593318E-22
   66.6999969      -4.83919389E-22
   66.8150024      -3.79165527E-22
   66.9300003      -2.57353741E-22
   67.0449982      -1.21193597E-22
   67.1600037       2.59684269E-23
   67.2750015       1.80226722E-22
   67.3899994       3.37221831E-22
   67.5049973       4.92270258E-22
   67.6200027       6.40516331E-22
   67.7350006       7.77101703E-22
   67.8499985       8.97347379E-22
   67.9649963       9.96941662E-22
   68.0800018       1.07212654E-21
   68.1949997       1.11987724E-21
   68.3099976       1.13806279E-21
   68.4250031       1.12558370E-21
   68.5400009       1.08247589E-21
   68.6549988       1.00997481E-21
   68.7699966       9.10534306E-22
   68.8850021       7.87793457E-22
   69.0000000       6.46489006E-22
   69.1149979       4.92312213E-22
   69.2300034       3.31711113E-22
   69.3450012       1.71640103E-22
   69.4599991       1.92646649E-23
   69.5749969      -1.18371785E-22
   69.6900024      -2.34707273E-22
   69.8050003      -3.24034298E-22
   69.9199982      -3.81870575E-22
   70.0350037      -4.05310397E-22
   70.1500015      -3.93339300E-22
   70.2649994      -3.47092942E-22
   70.3799973      -2.70042360E-22
   70.4950027      -1.68087604E-22
   70.6100006      -4.95458196E-23
   70.7249985       7.49807620E-23
   70.8399963       1.92864362E-22
   70.9550018       2.89842289E-22
   71.0699997       3.50541160E-22
   71.1849976       3.59124901E-22
   71.3000031       3.00054188E-22
   71.4150009       1.58940793E-22
   71.5299988      -7.65314985E-23
   71.6449966      -4.15652654E-22
   71.7600021      -8.63732060E-22
   71.8750000      -1.42118889E-21
   71.9899979      -2.08273476E-21
   72.1050034      -2.83669373E-21
   72.2200012      -3.66451149E-21
   72.3349991      -4.54049697E-21
   72.4499969      -5.43184265E-21
   72.5650024      -6.29896259E-21
   72.6800003      -7.09617083E-21
   72.7949982      -7.77273026E-21
   72.9100037      -8.27426424E-21
   73.0250015      -8.54453581E-21
   73.1399994      -8.52756569E-21
   73.2549973      -8.17004433E-21
   73.3700027      -7.42398396E-21
   73.4850006      -6.24954138E-21
   73.5999985      -4.61789854E-21
   73.7149963      -2.51412116E-21
   73.8300018       6.01478167E-23
   73.9449997       3.08427418E-21
   74.0599976       6.51663751E-21
   74.1750031       1.02931940E-20
   74.2900009       1.43267197E-20
   74.4049988       1.85068576E-20
   74.5199966       2.27010914E-20
   74.6350021       2.67566820E-20
   74.7500000       3.05036842E-20
   74.8649979       3.37590050E-20
   74.9800034       3.63315303E-20
   75.0950012       3.80282199E-20
   75.2099991       3.86611003E-20
   75.3249969       3.80549901E-20
   75.4400024       3.60557334E-20
   75.5550003       3.25387359E-20
   75.6699982       2.74174895E-20
   75.7850037       2.06517757E-20
   75.9000015       1.22551929E-20
   76.0149994       2.30165934E-21
   76.1299973      -9.06949500E-21
   76.2450027      -2.16502005E-20
   76.3600006      -3.51624139E-20
   76.4749985      -4.92593002E-20
   76.5899963      -6.35290414E-20
   76.7050018      -7.75014920E-20
   76.8199997      -9.06577414E-20
   76.9349976      -1.02442545E-19
   77.0500031      -1.12279635E-19
   77.1650009      -1.19589534E-19
   77.2799988      -1.23809641E-19
   77.3949966      -1.24416042E-19
   77.5100021      -1.20946549E-19
   77.6250000      -1.13024137E-19
   77.7399979      -1.00380196E-19
   77.8550034      -8.28765439E-20
   77.9700012      -6.05253935E-20
   78.0849991      -3.35063369E-20
   78.1999969      -2.17937736E-21
   78.3150024       3.29069024E-20
   78.4300003       7.10127189E-20
   78.5449982       1.11210918E-19
   78.6600037       1.52397611E-19
   78.7750015       1.93310132E-19
   78.8899994       2.32552446E-19
   79.0049973       2.68627757E-19
   79.1200027       2.99978083E-19
   79.2350006       3.25030411E-19
   79.3499985       3.42247995E-19
   79.4649963       3.50185801E-19
   79.5800018       3.47549137E-19
   79.6949997       3.33252793E-19
   79.8099976       3.06479723E-19
   79.9250031       2.66736615E-19
   80.0400009       2.13904318E-19
   80.1549988       1.48281198E-19
   80.2699966       7.06167320E-20
   80.3850021      -1.78662644E-20
   80.5000000      -1.15462872E-19
   80.6149979      -2.19992355E-19
   80.7300034      -3.28820656E-19
   80.8450012      -4.38900120E-19
   80.9599991      -5.46826511E-19
   81.0749969      -6.48913626E-19
   81.1900024      -7.41283748E-19
   81.3050003      -8.19974060E-19
   81.4199982      -8.81054886E-19
   81.5350037      -9.20759659E-19
   81.6500015      -9.35620992E-19
   81.7649994      -9.22610682E-19
   81.8799973      -8.79278722E-19
   81.9950027      -8.03887413E-19
   82.1100006      -6.95534766E-19
   82.2249985      -5.54263381E-19
   82.3399963      -3.81149368E-19
   82.4550018      -1.78366868E-19
   82.5699997       5.07759358E-20
   82.6849976       3.01833372E-19
   82.8000031       5.69254014E-19
   82.9150009       8.46449992E-19
   83.0299988       1.12590479E-18
   83.1449966       1.39931942E-18
   83.2600021       1.65779661E-18
   83.3750000       1.89205861E-18
   83.4899979       2.09269767E-18
   83.6050034       2.25045074E-18
   83.7200012       2.35649550E-18
   83.8349991       2.40275702E-18
   83.9499969       2.38221937E-18
   84.0650024       2.28923165E-18
   84.1800003       2.11979714E-18
   84.2949982       1.87183921E-18
   84.4100037       1.54543012E-18
   84.5250015       1.14297511E-18
   84.6399994       6.69340490E-19
   84.7549973       1.31919979E-19
   84.8700027      -4.59370617E-19
   84.9850006      -1.09217330E-18
   85.0999985      -1.75184818E-18
   85.2149963      -2.42171373E-18
   85.3300018      -3.08336785E-18
   85.4449997      -3.71708498E-18
   85.5599976      -4.30228507E-18
   85.6750031      -4.81806320E-18
   85.7900009      -5.24377294E-18
   85.9049988      -5.55964551E-18
   86.0199966      -5.74743370E-18
   86.1350021      -5.79106004E-18
   86.2500000      -5.67725280E-18
   86.3649979      -5.39614623E-18
   86.4800034      -4.94183051E-18
   86.5950012      -4.31283038E-18
   86.7099991      -3.51248392E-18
   86.8249969      -2.54921927E-18
   86.9400024      -1.43670054E-18
   87.0550003      -1.93834215E-19
   87.1699982       1.15537248E-18
   87.2850037       2.58211128E-18
   87.4000015       4.05323339E-18
   87.5149994       5.53186216E-18
   87.6299973       6.97816265E-18
   87.7450027       8.35024270E-18
   87.8600006       9.60518157E-18
   87.9749985       1.07001578E-17
   88.0899963       1.15936518E-17
   88.2050018       1.22466943E-17
   88.3199997       1.26241311E-17
   88.4349976       1.26958675E-17
   88.5500031       1.24380411E-17
   88.6650009       1.18341173E-17
   88.7799988       1.08758344E-17
   88.8949966       9.56399294E-18
   89.0100021       7.90902870E-18
   89.1250000       5.93136641E-18
   89.2399979       3.66150754E-18
   89.3550034       1.13984661E-18
   89.4700012      -1.58380189E-18
   89.5849991      -4.45096830E-18
   89.6999969      -7.39557867E-18
   89.8150024      -1.03452857E-17
   89.9300003      -1.32230504E-17
   90.0449982      -1.59489538E-17
   90.1600037      -1.84421936E-17
   90.2750015      -2.06232273E-17
   90.3899994      -2.24159957E-17
   90.5049973      -2.37501950E-17
   90.6200027      -2.45635187E-17
   90.7350006      -2.48037833E-17
   90.8499985      -2.44309250E-17
   90.9649963      -2.34187686E-17
   91.0800018      -2.17564962E-17
   91.1949997      -1.94497906E-17
   91.3099976      -1.65215828E-17
   91.4250031      -1.30123724E-17
   91.5400009      -8.98007208E-18
   91.6549988      -4.49938194E-18
   91.7699966       3.39326419E-19
   91.8850021       5.43162235E-18
   92.0000000       1.06610784E-17
   92.1149979       1.59017730E-17
   92.2300034       2.10211608E-17
   92.3450012       2.58832639E-17
   92.4599991       3.03521353E-17
   92.5749969       3.42954244E-17
   92.6900024       3.75880929E-17
   92.8050003       4.01160131E-17
   92.9199982       4.17795064E-17
   93.0350037       4.24966223E-17
   93.1500015       4.22060636E-17
   93.2649994       4.08697268E-17
   93.3799973       3.84746750E-17
   93.4950027       3.50345632E-17
   93.6100006       3.05903732E-17
   93.7249985       2.52104600E-17
   93.8399963       1.89898649E-17
   93.9550018       1.20488882E-17
   94.0699997       4.53091944E-18
   94.1849976      -3.40041149E-18
   94.3000031      -1.15647418E-17
   94.4150009      -1.97690608E-17
   94.5299988      -2.78122706E-17
   94.6449966      -3.54901180E-17
   94.7600021      -4.26003905E-17
   94.8750000      -4.89482242E-17
   94.9899979      -5.43513845E-17
   95.1050034      -5.86453915E-17
   95.2200012      -6.16883044E-17
   95.3349991      -6.33651120E-17
   95.4499969      -6.35914617E-17
   95.5650024      -6.23167632E-17
   95.6800003      -5.95264050E-17
   95.7949982      -5.52431513E-17
   95.9100037      -4.95275682E-17
   96.0250015      -4.24774483E-17
   96.1399994      -3.42262489E-17
   96.2549973      -2.49405774E-17
   96.3700027      -1.48167321E-17
   96.4850006      -4.07637129E-18
   96.5999985       7.03855262E-18
   96.7149963       1.82715016E-17
   96.8300018       2.93575267E-17
   96.9449997       4.00298341E-17
   97.0599976       5.00264475E-17
   97.1750031       5.90969329E-17
   97.2900009       6.70088492E-17
   97.4049988       7.35539059E-17
   97.5199966       7.85535179E-17
   97.6350021       8.18637094E-17
   97.7500000       8.33791440E-17
   97.8649979       8.30362545E-17
   97.9800034       8.08152481E-17
   98.0950012       7.67411056E-17
   98.2099991       7.08833434E-17
   98.3249969       6.33546829E-17
   98.4400024       5.43085166E-17