   0.00000000       0.00000000    
  0.115000002       0.00000000    
  0.230000004       0.00000000    
  0.344999999       0.00000000    
  0.460000008       0.00000000    
  0.574999988       0.00000000    
  0.689999998       0.00000000    
  0.805000007       0.00000000    
  0.920000017       0.00000000    
   1.03499997       0.00000000    
   1.14999998       0.00000000    
   1.26499999       0.00000000    
   1.38000000       0.00000000    
   1.49500000       0.00000000    
   1.61000001       0.00000000    
   1.72500002       0.00000000    
   1.84000003       0.00000000    
   1.95500004       0.00000000    
   2.06999993       0.00000000    
   2.18499994       0.00000000    
   2.29999995       0.00000000    
   2.41499996       0.00000000    
   2.52999997       0.00000000    
   2.64499998       0.00000000    
   2.75999999       0.00000000    
   2.87500000       0.00000000    
   2.99000001       0.00000000    
   3.10500002       0.00000000    
   3.22000003       0.00000000    
   3.33500004       0.00000000    
   3.45000005       0.00000000    
   3.56500006       0.00000000    
   3.68000007       0.00000000    
   3.79500008       0.00000000    
   3.91000009       0.00000000    
   4.02500010       0.00000000    
   4.13999987       0.00000000    
   4.25500011       0.00000000    
   4.36999989       0.00000000    
   4.48500013       0.00000000    
   4.59999990       0.00000000    
   4.71500015       0.00000000    
   4.82999992       0.00000000    
   4.94500017       0.00000000    
   5.05999994       0.00000000    
   5.17500019       0.00000000    
   5.28999996       0.00000000    
   5.40500021       0.00000000    
   5.51999998       0.00000000    
   5.63500023       0.00000000    
   5.75000000       0.00000000    
   5.86499977       0.00000000    
   5.98000002       0.00000000    
   6.09499979       0.00000000    
   6.21000004       0.00000000    
   6.32499981       0.00000000    
   6.44000006       0.00000000    
   6.55499983       0.00000000    
   6.67000008       0.00000000    
   6.78499985       0.00000000    
   6.90000010       0.00000000    
   7.01499987       0.00000000    
   7.13000011       0.00000000    
   7.24499989       0.00000000    
   7.36000013       0.00000000    
   7.47499990       0.00000000    
   7.59000015       0.00000000    
   7.70499992       0.00000000    
   7.82000017       0.00000000    
   7.93499994       0.00000000    
   8.05000019       0.00000000    
   8.16499996       0.00000000    
   8.27999973       0.00000000    
   8.39500046       0.00000000    
   8.51000023       0.00000000    
   8.62500000       0.00000000    
   8.73999977       0.00000000    
   8.85499954       0.00000000    
   8.97000027       0.00000000    
   9.08500004       0.00000000    
   9.19999981       0.00000000    
   9.31499958       0.00000000    
   9.43000031       0.00000000    
   9.54500008       0.00000000    
   9.65999985       0.00000000    
   9.77499962       0.00000000    
   9.89000034       0.00000000    
   10.0050001       0.00000000    
   10.1199999       0.00000000    
   10.2349997       0.00000000    
   10.3500004       0.00000000    
   10.4650002       0.00000000    
   10.5799999       0.00000000    
   10.6949997       0.00000000    
   10.8100004       0.00000000    
   10.9250002       0.00000000    
   11.0400000       0.00000000    
   11.1549997       0.00000000    
   11.2700005       0.00000000    
   11.3850002       0.00000000    
   11.5000000       0.00000000    
   11.6149998       0.00000000    
   11.7299995       0.00000000    
   11.8450003       0.00000000    
   11.9600000       0.00000000    
   12.0749998       0.00000000    
   12.1899996       0.00000000    
   12.3050003       0.00000000    
   12.4200001       0.00000000    
   12.5349998       0.00000000    
   12.6499996       0.00000000    
   12.7650003       0.00000000    
   12.8800001       0.00000000    
   12.9949999       0.00000000    
   13.1099997       0.00000000    
   13.2250004       0.00000000    
   13.3400002       0.00000000    
   13.4549999       0.00000000    
   13.5699997       0.00000000    
   13.6850004       0.00000000    
   13.8000002       0.00000000    
   13.9150000       0.00000000    
   14.0299997       0.00000000    
   14.1450005       0.00000000    
   14.2600002       0.00000000    
   14.3750000       0.00000000    
   14.4899998       0.00000000    
   14.6049995       0.00000000    
   14.7200003       0.00000000    
   14.8350000       0.00000000    
   14.9499998       0.00000000    
   15.0649996       0.00000000    
   15.1800003       0.00000000    
   15.2950001       0.00000000    
   15.4099998       0.00000000    
   15.5249996       0.00000000    
   15.6400003       0.00000000    
   15.7550001       0.00000000    
   15.8699999       0.00000000    
   15.9849997       0.00000000    
   16.1000004       0.00000000    
   16.2150002       0.00000000    
   16.3299999       0.00000000    
   16.4449997       0.00000000    
   16.5599995       4.35103173E-42
   16.6749992       8.70206346E-42
   16.7900009       1.30530952E-41
   16.9050007       1.74055282E-41
   17.0200005       2.17565600E-41
   17.1350002       2.61075917E-41
   17.2500000       3.04586234E-41
   17.3649998       2.61075917E-41
   17.4799995       1.38854665E-41
   17.5949993       8.32651548E-42
   17.7099991       2.76616317E-42
   17.8250008       3.97674491E-41
   17.9400005       1.06207213E-40
   18.0550003       1.75741044E-40
   18.1700001       2.41028941E-40
   18.2849998       3.60825947E-40
   18.3999996       4.45049590E-40
   18.5149994       4.98048099E-40
   18.6299992       4.72297838E-40
   18.7450008       4.03939697E-40
   18.8600006       2.58316760E-40
   18.9750004      -7.88846958E-41
   19.0900002      -5.03466920E-40
   19.2049999      -1.04802972E-39
   19.3199997      -1.41082029E-39
   19.4349995      -1.68851420E-39
   19.5499992      -1.63655406E-39
   19.6650009      -1.43273660E-39
   19.7800007      -1.00108762E-39
   19.8950005      -2.47113379E-40
   20.0100002       3.08106296E-40
   20.1250000       2.24728337E-39
   20.2399998       5.82063509E-39
   20.3549995       1.09167568E-38
   20.4699993       1.77511627E-38
   20.5849991       2.39759757E-38
   20.7000008       2.59635718E-38
   20.8150005       5.20146912E-38
   20.9300003       7.50220782E-38
   21.0450001       6.92683579E-38
   21.1599998       4.55170748E-38
   21.2749996       1.76392214E-38
   21.3899994      -3.45620121E-38
   21.5049992      -8.75193568E-38
   21.6200008      -1.42646758E-37
   21.7350006      -2.12022153E-37
   21.8500004      -2.54189667E-37
   21.9650002      -2.80257025E-37
   22.0799999      -2.97079557E-37
   22.1949997      -2.69734708E-37
   22.3099995      -2.42388963E-37
   22.4249992      -1.80066359E-37
   22.5400009      -9.57032817E-38
   22.6550007       1.80527067E-38
   22.7700005       1.62409349E-37
   22.8850002       7.86795591E-37
   23.0000000       1.39297533E-36
   23.1149998       2.39545287E-36
   23.2299995       3.38098478E-36
   23.3449993       4.29080155E-36
   23.4599991       4.65262443E-36
   23.5750008       4.23168496E-36
   23.6900005       3.23665668E-36
   23.8050003       1.44128843E-36
   23.9200001      -7.38345865E-37
   24.0349998      -3.37921371E-36
   24.1499996      -6.25801007E-36
   24.2649994      -8.88257456E-36
   24.3799992      -1.13953193E-35
   24.4950008      -1.39552316E-35
   24.6100006      -1.59089242E-35
   24.7250004      -1.77838061E-35
   24.8400002      -1.95985487E-35
   24.9549999      -1.99604465E-35
   25.0699997      -1.80035211E-35
   25.1849995      -1.37928234E-35
   25.2999992      -7.88117377E-36
   25.4150009       2.13712567E-37
   25.5300007       1.08286276E-35
   25.6450005       2.40358849E-35
   25.7600002       3.95774340E-35
   25.8750000       5.74094968E-35
   25.9899998       7.64692193E-35
   26.1049995       9.46268648E-35
   26.2199993       1.09946351E-34
   26.3349991       1.20375282E-34
   26.4500008       1.24195260E-34
   26.5650005       1.19378603E-34
   26.6800003       1.04894756E-34
   26.7950001       7.84448649E-35
   26.9099998       3.80552808E-35
   27.0249996      -1.65116290E-35
   27.1399994      -8.46808509E-35
   27.2549992      -1.65132585E-34
   27.3700008      -2.55382737E-34
   27.4850006      -3.50913188E-34
   27.6000004      -4.46082611E-34
   27.7150002      -5.32449166E-34
   27.8299999      -6.00696072E-34
   27.9449997      -6.41895864E-34
   28.0599995      -6.44679857E-34
   28.1749992      -5.99745942E-34
   28.2900009      -4.98227357E-34
   28.4050007      -3.33506803E-34
   28.5200005      -1.02818792E-34
   28.6350002       1.92798407E-34
   28.7500000       5.46477360E-34
   28.8649998       9.44814237E-34
   28.9799995       1.36712170E-33
   29.0949993       1.78692406E-33
   29.2099991       2.17068164E-33
   29.3250008       2.48052616E-33
   29.4400005       2.67412126E-33
   29.5550003       2.70740887E-33
   29.6700001       2.54008772E-33
   29.7849998       2.13675008E-33
   29.8999996       1.47433606E-33
   30.0149994       5.44611492E-34
   30.1299992      -6.41187766E-34
   30.2450008      -2.04685231E-33
   30.3600006      -3.60933079E-33
   30.4750004      -5.23558021E-33
   30.5900002      -6.80450480E-33
   30.7049999      -8.16774176E-33
   30.8199997      -9.15665284E-33
   30.9349995      -9.59019793E-33
   31.0499992      -9.28760585E-33
   31.1650009      -8.08216871E-33
   31.2800007      -5.84106008E-33
   31.3950005      -2.48213659E-33
   31.5100002       2.00301464E-33
   31.6250000       7.53226291E-33
   31.7399998       1.39130292E-32
   31.8549995       2.08311220E-32
   31.9699993       2.78427563E-32
   32.0849991       3.43787429E-32
   32.2000008       3.97571468E-32
   32.3149986       4.32068289E-32
   32.4300003       4.39076792E-32
   32.5449982       4.10394612E-32
   32.6599998       3.38512927E-32
   32.7750015       2.17333624E-32
   32.8899994       4.30076318E-33
   33.0050011      -1.85208113E-32
   33.1199989      -4.64101862E-32
   33.2350006      -7.85793053E-32
   33.3499985      -1.13716477E-31
   33.4650002      -1.49956028E-31
   33.5800018      -1.84880564E-31
   33.6949997      -2.15570335E-31
   33.8100014      -2.38694308E-31
   33.9249992      -2.50655315E-31
   34.0400009      -2.47789202E-31
   34.1549988      -2.26611848E-31
   34.2700005      -1.84112590E-31
   34.3849983      -1.18077444E-31
   34.5000000      -2.74261846E-32
   34.6150017       8.74562155E-32
   34.7299995       2.24418117E-31
   34.8450012       3.79300712E-31
   34.9599991       5.45792042E-31
   35.0750008       7.15397586E-31
   35.1899986       8.77562863E-31
   35.3050003       1.01996648E-30
   35.4199982       1.12899922E-30
   35.5349998       1.19043996E-30
   35.6500015       1.19031019E-30
   35.7649994       1.11589509E-30
   35.8800011       9.56885503E-31
   35.9949989       7.06585940E-31
   36.1100006       3.63117470E-31
   36.2249985      -6.94736851E-32
   36.3400002      -5.80298209E-31
   36.4550018      -1.15100184E-30
   36.5699997      -1.75554815E-30
   36.6850014      -2.36049666E-30
   36.7999992      -2.92586506E-30
   36.9150009      -3.40663191E-30
   37.0299988      -3.75490286E-30
   37.1450005      -3.92272095E-30
   37.2599983      -3.86546215E-30
   37.3750000      -3.54567728E-30
   37.4900017      -2.93722466E-30
   37.6049995      -2.02943438E-30
   37.7200012      -8.31041216E-31
   37.8349991       6.26457427E-31
   37.9500008       2.28635438E-30
   38.0649986       4.06556627E-30
   38.1800003       5.85508432E-30
   38.2949982       7.52234984E-30
   38.4099998       8.91576692E-30
   38.5250015       9.87149687E-30
   38.6399994       1.02225217E-29
   38.7550011       9.80981821E-30
   38.8699989       8.49532062E-30
   38.9850006       6.17615452E-30
   39.0999985       2.79943528E-30
   39.2150002      -1.62322510E-30
   39.3300018      -7.00255188E-30
   39.4449997      -1.31608995E-29
   39.5600014      -1.98252024E-29
   39.6749992      -2.66247718E-29
   39.7900009      -3.30950387E-29
   39.9049988      -3.86881770E-29
   40.0200005      -4.27912474E-29
   40.1349983      -4.47522293E-29
   40.2500000      -4.39137546E-29
   40.3650017      -3.96539797E-29
   40.4799995      -3.14333524E-29
   40.5950012      -1.88455600E-29
   40.7099991      -1.67030713E-30
   40.8250008       2.00749624E-29
   40.9399986       4.60876781E-29
   41.0550003       7.57407701E-29
   41.1699982       1.08055022E-28
   41.2849998       1.41686971E-28
   41.4000015       1.74935768E-28
   41.5149994       2.05772013E-28
   41.6300011       2.31890536E-28
   41.7449989       2.50788483E-28
   41.8600006       2.59868279E-28
   41.9749985       2.56564202E-28
   42.0900002       2.38488796E-28
   42.2050018       2.03594917E-28
   42.3199997       1.50346349E-28
   42.4350014       7.78892533E-29
   42.5499992      -1.37847292E-29
   42.6650009      -1.23694259E-28
   42.7799988      -2.49753271E-28
   42.8950005      -3.88696092E-28
   43.0099983      -5.36052218E-28
   43.1250000      -6.86180287E-28
   43.2400017      -8.32366892E-28
   43.3549995      -9.66995173E-28
   43.4700012      -1.08178378E-27
   43.5849991      -1.16809317E-27
   43.7000008      -1.21729317E-27
   43.8149986      -1.22118027E-27
   43.9300003      -1.17243017E-27
   44.0449982      -1.06506574E-27
   44.1599998      -8.94920423E-28
   44.2750015      -6.60070166E-28
   44.3899994      -3.61210424E-28
   44.5050011      -1.95033603E-30
   44.6199989       4.10998891E-28
   44.7350006       8.67764714E-28
   44.8499985       1.35539958E-27
   44.9650002       1.85812565E-27
   45.0800018       2.35774135E-27
   45.1949997       2.83418926E-27
   45.3100014       3.26626895E-27
   45.4249992       3.63247682E-27
   45.5400009       3.91194197E-27
   45.6549988       4.08541664E-27
   45.7700005       4.13627891E-27
   45.8849983       4.05149485E-27
   46.0000000       3.82248291E-27
   46.1150017       3.44583033E-27
   46.2299995       2.92380529E-27
   46.3450012       2.26461898E-27
   46.4599991       1.48240147E-27
   46.5750008       5.96862445E-28
   46.6899986      -3.67369885E-28
   46.8050003      -1.38172849E-27
   46.9199982      -2.41497960E-27
   47.0349998      -3.43474044E-27
   47.1500015      -4.40918126E-27
   47.2649994      -5.30882743E-27
   47.3800011      -6.10836415E-27
   47.4949989      -6.78833683E-27
   47.6100006      -7.33662597E-27
   47.7249985      -7.74958618E-27
   47.8400002      -8.03272562E-27
   47.9550018      -8.20083696E-27
   48.0699997      -8.27749129E-27
   48.1850014      -8.29383935E-27
   48.2999992      -8.28670262E-27
   48.4150009      -8.29595941E-27
   48.5299988      -8.36129235E-27
   48.6450005      -8.51839585E-27
   48.7599983      -8.79479145E-27
   48.8750000      -9.20543207E-27
   48.9900017      -9.74835172E-27
   49.1049995      -1.04005764E-26
   49.2200012      -1.11146480E-26
   49.3349991      -1.18159847E-26
   49.4500008      -1.24014404E-26
   49.5649986      -1.27393040E-26
   49.6800003      -1.26709974E-26
   49.7949982      -1.20146782E-26
   49.9099998      -1.05708709E-26
   50.0250015      -8.13018307E-27
   50.1399994      -4.48307187E-27
   50.2550011       5.68490897E-28
   50.3699989       7.19771481E-27
   50.4850006       1.55384059E-26
   50.5999985       2.56695986E-26
   50.7150002       3.75999950E-26
   50.8300018       5.12528816E-26
   50.9449997       6.64523176E-26
   51.0600014       8.29113642E-26
   51.1749992       1.00223225E-25
   51.2900009       1.17856152E-25
   51.4049988       1.35152827E-25
   51.5200005       1.51335088E-25
   51.6349983       1.65514370E-25
   51.7500000       1.76708491E-25
   51.8650017       1.83864951E-25
   51.9799995       1.85890721E-25
   52.0950012       1.81688398E-25
   52.2099991       1.70198047E-25
   52.3250008       1.50444082E-25
   52.4399986       1.21585997E-25
   52.5550003       8.29716751E-26
   52.6699982       3.41915458E-26
   52.7849998      -2.48682931E-26
   52.9000015      -9.39759026E-26
   53.0149994      -1.72508645E-25
   53.1300011      -2.59415873E-25
   53.2449989      -3.53191344E-25
   53.3600006      -4.51857604E-25
   53.4749985      -5.52964624E-25
   53.5900002      -6.53603998E-25
   53.7050018      -7.50440569E-25
   53.8199997      -8.39762550E-25
   53.9350014      -9.17550348E-25
   54.0499992      -9.79564282E-25
   54.1650009      -1.02145063E-24
   54.2799988      -1.03886503E-24
   54.3950005      -1.02761005E-24
   54.5099983      -9.83786266E-25
   54.6250000      -9.03951373E-25
   54.7400017      -7.85285344E-25
   54.8549995      -6.25755778E-25
   54.9700012      -4.24278780E-25
   55.0849991      -1.80870990E-25
   55.2000008       1.03214653E-25
   55.3149986       4.25373226E-25
   55.4300003       7.81559159E-25
   55.5449982       1.16622909E-24
   55.6599998       1.57232186E-24
   55.7750015       1.99127997E-24
   55.8899994       2.41311545E-24
   56.0050011       2.82652392E-24
   56.1199989       3.21904711E-24
   56.2350006       3.57728581E-24
   56.3499985       3.88716141E-24
   56.4650002       4.13422239E-24
   56.5800018       4.30399433E-24
   56.6949997       4.38236766E-24
   56.8100014       4.35601261E-24
   56.9249992       4.21281858E-24
   57.0400009       3.94234302E-24
   57.1549988       3.53626386E-24
   57.2700005       2.98881884E-24
   57.3849983       2.29722232E-24
   57.5000000       1.46204433E-24
   57.6150017       4.87541184E-25
   57.7299995      -6.18078830E-25
   57.8450012      -1.84246511E-24
   57.9599991      -3.16902090E-24
   58.0750008      -4.57689840E-24
   58.1899986      -6.04109957E-24
   58.3050003      -7.53268684E-24
   58.4199982      -9.01911457E-24
   58.5349998      -1.04646698E-23
   58.6500015      -1.18310321E-23
   58.7649994      -1.30779357E-23
   58.8800011      -1.41639392E-23
   58.9949989      -1.50472630E-23
   59.1100006      -1.56867152E-23
   59.2249985      -1.60426509E-23
   59.3400002      -1.60779697E-23
   59.4550018      -1.57591153E-23
   59.5699997      -1.50570481E-23
   59.6850014      -1.39481841E-23
   59.7999992      -1.24152617E-23
   59.9150009      -1.04481077E-23
   60.0299988      -8.04431284E-24
   60.1450005      -5.20976679E-24
   60.2599983      -1.95906131E-24
   60.3750000       1.68424052E-24
   60.4900017       5.68748281E-24
   60.6049995       1.00089260E-23
   60.7200012       1.45978726E-23
   60.8349991       1.93949121E-23
   60.9500008       2.43322158E-23
   61.0649986       2.93339284E-23
   61.1800003       3.43165853E-23
   61.2949982       3.91894991E-23
   61.4099998       4.38552074E-23
   61.5250015       4.82098648E-23
   61.6399994       5.21436364E-23
   61.7550011       5.55410836E-23
   61.8699989       5.82815738E-23
   61.9850006       6.02397916E-23
   62.0999985       6.12863450E-23
   62.2150002       6.12886169E-23
   62.3300018       6.01119204E-23
   62.4449997       5.76210637E-23
   62.5600014       5.36824327E-23
   62.6749992       4.81667866E-23
   62.7900009       4.09527231E-23
   62.9049988       3.19310447E-23
   63.0200005       2.10100607E-23
   63.1349983       8.12180028E-24
   63.2500000      -6.77078763E-24
   63.3650017      -2.36658382E-23
   63.4799995      -4.25137053E-23
   63.5950012      -6.32077703E-23
   63.7099991      -8.55749179E-23
   63.8250008      -1.09366187E-22
   63.9399986      -1.34248109E-22
   64.0550003      -1.59795149E-22
   64.1699982      -1.85483931E-22
   64.2850037      -2.10689980E-22
   64.4000015      -2.34687356E-22
   64.5149994      -2.56652374E-22
   64.6299973      -2.75671343E-22
   64.7450027      -2.90753506E-22
   64.8600006      -3.00849512E-22
   64.9749985      -3.04875151E-22
   65.0899963      -3.01741518E-22
   65.2050018      -2.90390226E-22
   65.3199997      -2.69834581E-22
   65.4349976      -2.39204841E-22
   65.5500031      -1.97797242E-22
   65.6650009      -1.45125605E-22
   65.7799988      -8.09735364E-23
   65.8949966      -5.44498579E-24
   66.0100021       8.09878747E-23
   66.1250000       1.77442800E-22
   66.2399979       2.82594033E-22
   66.3550034       3.94649112E-22
   66.4700012       5.11339285E-22
   66.5849991       6.29925148E-22
   66.6999969       7.47220005E-22
   66.8150024       8.59632104E-22
   66.9300003       9.63227287E-22
   67.0449982       1.05381225E-21
   67.1600037       1.12703843E-21
   67.2750015       1.17852427E-21
   67.3899994       1.20399612E-21
   67.5049973       1.19944248E-21
   67.6200027       1.16127959E-21
   67.7350006       1.08652173E-21
   67.8499985       9.72953828E-22
   67.9649963       8.19296244E-22
   68.0800018       6.25359145E-22
   68.1949997       3.92176103E-22
   68.3099976       1.22112235E-22
   68.4250031      -1.81061337E-22
   68.5400009      -5.12132236E-22
   68.6549988      -8.64456954E-22
   68.7699966      -1.23002121E-21
   68.8850021      -1.59955253E-21
   69.0000000      -1.96268795E-21
   69.1149979      -2.30819620E-21
   69.2300034      -2.62425190E-21
   69.3450012      -2.89875853E-21
   69.4599991      -3.11971229E-21
   69.5749969      -3.27559766E-21
   69.6900024      -3.35580833E-21
   69.8050003      -3.35107386E-21
   69.9199982      -3.25388599E-21
   70.0350037      -3.05890118E-21
   70.1500015      -2.76331195E-21
   70.2649994      -2.36716271E-21
   70.3799973      -1.87360044E-21
   70.4950027      -1.28904153E-21
   70.6100006      -6.23244443E-22
   70.7249985       1.10724706E-22
   70.8399963       8.96641469E-22
   70.9550018       1.71539205E-21
   71.0699997       2.54536036E-21
   71.1849976       3.36293529E-21
   71.3000031       4.14312312E-21
   71.4150009       4.86026125E-21
   71.5299988       5.48880583E-21
   71.6449966       6.00418297E-21
   71.7600021       6.38367187E-21
   71.8750000       6.60729134E-21
   71.9899979       6.65866297E-21
   72.1050034       6.52581526E-21
   72.2200012       6.20189812E-21
   72.3349991       5.68577296E-21
   72.4499969       4.98244810E-21
   72.5650024       4.10333727E-21
   72.6800003       3.06630825E-21
   72.7949982       1.89551527E-21
   72.9100037       6.20995445E-22
   73.0250015      -7.21968732E-22
   73.1399994      -2.09371813E-21
   73.2549973      -3.45130286E-21
   73.3700027      -4.74976236E-21
   73.4850006      -5.94357058E-21
   73.5999985      -6.98820438E-21
   73.7149963      -7.84178287E-21
   73.8300018      -8.46674045E-21
   73.9449997      -8.83145359E-21
   74.0599976      -8.91177654E-21
   74.1750031      -8.69241212E-21
   74.2900009      -8.16806766E-21
   74.4049988      -7.34431936E-21
   74.5199966      -6.23814987E-21
   74.6350021      -4.87810500E-21
   74.7500000      -3.30403583E-21
   74.8649979      -1.56640452E-21
   74.9800034       2.74850802E-22
   75.0950012       2.15189703E-21
   75.2099991       3.99098772E-21
   75.3249969       5.71482768E-21
   75.4400024       7.24524590E-21
   75.5550003       8.50610827E-21
   75.6699982       9.42639032E-21
   75.7850037       9.94330065E-21
   75.9000015       1.00053319E-20
   76.0149994       9.57514873E-21
   76.1299973       8.63216930E-21
   76.2450027       7.17472714E-21
   76.3600006       5.22170161E-21
   76.4749985       2.81350420E-21
   76.5899963       1.23388172E-23
   76.7050018      -3.09834736E-21
   76.8199997      -6.41525134E-21
   76.9349976      -9.81749327E-21
   77.0500031      -1.31697364E-20
   77.1650009      -1.63261397E-20
   77.2799988      -1.91350657E-20
   77.3949966      -2.14443843E-20
   77.5100021      -2.31073179E-20
   77.6250000      -2.39885673E-20
   77.7399979      -2.39705859E-20
   77.8550034      -2.29596823E-20
   77.9700012      -2.08918519E-20
   78.0849991      -1.77379350E-20
   78.1999969      -1.35079660E-20
   78.3150024      -8.25440544E-21
   78.4300003      -2.07404431E-21
   78.5449982       4.89158789E-21
   78.6600037       1.24575307E-20
   78.7750015       2.03984225E-20
   78.8899994       2.84534298E-20
   79.0049973       3.63330134E-20
   79.1200027       4.37273586E-20
   79.2350006       5.03164952E-20
   79.3499985       5.57816936E-20
   79.4649963       5.98179731E-20
   79.5800018       6.21471845E-20
   79.6949997       6.25315068E-20
   79.8099976       6.07864013E-20
   79.9250031       5.67931093E-20
   80.0400009       5.05095061E-20
   80.1549988       4.19791737E-20
   80.2699966       3.13379766E-20
   80.3850021       1.88176965E-20
   80.5000000       4.74623876E-21
   80.6149979      -1.04559620E-20
   80.7300034      -2.62835428E-20
   80.8450012      -4.21579482E-20
   80.9599991      -5.74434413E-20
   81.0749969      -7.14667958E-20
   81.1900024      -8.35408992E-20
   81.3050003      -9.29911404E-20
   81.4199982      -9.91845195E-20
   81.5350037      -1.01559930E-19
   81.6500015      -9.96591596E-20
   81.7649994      -9.31569320E-20
   81.8799973      -8.18895494E-20
   81.9950027      -6.58799210E-20
   82.1100006      -4.53580224E-20
   82.2249985      -2.07758512E-20
   82.3399963       7.18507013E-21
   82.4550018       3.76140383E-20
   82.5699997       6.93810276E-20
   82.6849976       1.01155865E-19
   82.8000031       1.31437849E-19
   82.9150009       1.58595662E-19
   83.0299988       1.80916769E-19
   83.1449966       1.96666469E-19
   83.2600021       2.04154470E-19
   83.3750000       2.01808534E-19
   83.4899979       1.88252064E-19
   83.6050034       1.62383968E-19
   83.7200012       1.23457740E-19
   83.8349991       7.11573462E-20
   83.9499969       5.66567546E-21
   84.0650024      -7.22765345E-20
   84.1800003      -1.61325888E-19
   84.2949982      -2.59507755E-19
   84.4100037      -3.64207546E-19
   84.5250015      -4.72184989E-19
   84.6399994      -5.79611607E-19
   84.7549973      -6.82135836E-19
   84.8700027      -7.74973625E-19
   84.9850006      -8.53026439E-19
   85.0999985      -9.11024984E-19
   85.2149963      -9.43695826E-19
   85.3300018      -9.45949997E-19
   85.4449997      -9.13086524E-19
   85.5599976      -8.41008332E-19
   85.6750031      -7.26442835E-19
   85.7900009      -5.67160109E-19
   85.9049988      -3.62183771E-19
   86.0199966      -1.11980338E-19
   86.1350021       1.81372869E-19
   86.2500000       5.14058474E-19
   86.3649979       8.80430158E-19
   86.4800034       1.27297668E-18
   86.5950012       1.68234144E-18
   86.7099991       2.09740578E-18
   86.8249969       2.50544095E-18
   86.9400024       2.89232883E-18
   87.0550003       3.24285302E-18
   87.1699982       3.54105970E-18
   87.2850037       3.77068007E-18
   87.4000015       3.91561453E-18
   87.5149994       3.96045888E-18
   87.6299973       3.89107373E-18
   87.7450027       3.69517213E-18
   87.8600006       3.36291209E-18
   87.9749985       2.88748155E-18
   88.0899963       2.26564584E-18
   88.2050018       1.49824795E-18
   88.3199997       5.90632910E-19
   88.4349976      -4.47022568E-19
   88.5500031      -1.59948886E-18
   88.6650009      -2.84639900E-18
   88.7799988      -4.16230956E-18
   88.8949966      -5.51692121E-18
   89.0100021      -6.87546694E-18
   89.1250000      -8.19927728E-18
   89.2399979      -9.44651757E-18
   89.3550034      -1.05730937E-17
   89.4700012      -1.15337126E-17
   89.5849991      -1.22830911E-17
   89.6999969      -1.27772687E-17
   89.8150024      -1.29750285E-17
   89.9300003      -1.28393560E-17
   90.0449982      -1.23389258E-17
   90.1600037      -1.14495693E-17
   90.2750015      -1.01556603E-17
   90.3899994      -8.45139283E-18
   90.5049973      -6.34189574E-18
   90.6200027      -3.84412751E-18
   90.7350006      -9.87525335E-19
   90.8499985       2.18565230E-18
   90.9649963       5.62031714E-18
   91.0800018       9.24889833E-18
   91.1949997       1.29920900E-17
   91.3099976       1.67599878E-17
   91.4250031       2.04536305E-17
   91.5400009       2.39669362E-17
   91.6549988       2.71889933E-17
   91.7699966       3.00067113E-17
   91.8850021       3.23077490E-17
   92.0000000       3.39836567E-17
   92.1149979       3.49332269E-17
   92.2300034       3.50658703E-17
   92.3450012       3.43050163E-17
   92.4599991       3.25914158E-17
   92.5749969       2.98862109E-17
   92.6900024       2.61737184E-17
   92.8050003       2.14637967E-17
   92.9199982       1.57937069E-17
   93.0350037       9.22936529E-18
   93.1500015       1.86592776E-18
   93.2649994      -6.17240312E-18
   93.3799973      -1.47333523E-17
   93.4950027      -2.36384049E-17
   93.6100006      -3.26854993E-17
   93.7249985      -4.16525573E-17
   93.8399963      -5.03018258E-17
   93.9550018      -5.83850149E-17
   94.0699997      -6.56490636E-17
   94.1849976      -7.18425156E-17
   94.3000031      -7.67222988E-17
   94.4150009      -8.00608196E-17
   94.5299988      -8.16531556E-17
   94.6449966      -8.13241891E-17
   94.7600021      -7.89354106E-17
   94.8750000      -7.43913502E-17
   94.9899979      -6.76452225E-17
   95.1050034      -5.87037375E-17
   95.2200012      -4.76308298E-17
   95.3349991      -3.45501100E-17
   95.4499969      -1.96459101E-17
   95.5650024      -3.16280903E-18
   95.6800003       1.45964837E-17
   95.7949982       3.32749383E-17
   95.9100037       5.24666998E-17
   96.0250015       7.17242618E-17
   96.1399994       9.05672376E-17
   96.2549973       1.08492553E-16
   96.3700027       1.24985998E-16
   96.4850006       1.39534742E-16
   96.5999985       1.51640801E-16
   96.7149963       1.60834841E-16
   96.8300018       1.66690221E-16
   96.9449997       1.68836841E-16
   97.0599976       1.66974427E-16
   97.1750031       1.60884789E-16
   97.2900009       1.50442753E-16
   97.4049988       1.35625354E-16
   97.5199966       1.16518990E-16
   97.6350021       9.33240983E-17
   97.7500000       6.63572096E-17
   97.8649979       3.60501094E-17
   97.9800034       2.94590821E-18
   98.0950012      -3.23079509E-17
   98.2099991      -6.89699092E-17
   98.3249969      -1.06217475E-16
   98.4400024      -1.43163378E-16