   0.00000000       0.00000000    
  0.115000002       0.00000000    
  0.230000004       0.00000000    
  0.344999999       1.00889655E-22
  0.460000008       5.43210629E-22
  0.574999988       1.10904917E-21
  0.689999998      -4.49829491E-22
  0.805000007      -1.03855886E-20
  0.920000017      -3.92807813E-20
   1.03499997      -9.69475517E-20
   1.14999998      -1.76720365E-19
   1.26499999      -2.23939221E-19
   1.38000000      -8.64014125E-20
   1.49500000       5.47519274E-19
   1.61000001       2.20332874E-18
   1.72500002       5.62877299E-18
   1.84000003       1.16993953E-17
   1.95500004       2.11582411E-17
   2.06999993       3.41463300E-17
   2.18499994       4.95385995E-17
   2.29999995       6.41994660E-17
   2.41499996       7.23975471E-17
   2.52999997       6.57332573E-17
   2.64499998       3.39791138E-17
   2.75999999      -3.28509652E-17
   2.87500000      -1.41143535E-16
   2.99000001      -2.89406171E-16
   3.10500002      -4.63963144E-16
   3.22000003      -6.36013006E-16
   3.33500004      -7.61696601E-16
   3.45000005      -7.86662315E-16
   3.56500006      -6.55902133E-16
   3.68000007      -3.28371168E-16
   3.79500008       2.05722492E-16
   3.91000009       9.08701181E-16
   4.02500010       1.68515913E-15
   4.13999987       2.38270177E-15
   4.25500011       2.80752776E-15
   4.36999989       2.75606585E-15
   4.48500013       2.06009890E-15
   4.59999990       6.38576974E-16
   4.71500015      -1.45438871E-15
   4.82999992      -3.99795019E-15
   4.94500017      -6.60155710E-15
   5.05999994      -8.73931834E-15
   5.17500019      -9.82414054E-15
   5.28999996      -9.31574459E-15
   5.40500021      -6.84785650E-15
   5.51999998      -2.35235343E-15
   5.63500023       3.84610853E-15
   5.75000000       1.09910877E-14
   5.86499977       1.79312708E-14
   5.98000002       2.32428179E-14
   6.09499979       2.54320321E-14
   6.21000004       2.31972543E-14
   6.32499981       1.57141163E-14
   6.44000006       2.89766371E-15
   6.55499983      -1.44091384E-14
   6.67000008      -3.43670642E-14
   6.78499985      -5.42264394E-14
   6.90000010      -7.05812497E-14
   7.01499987      -7.97806916E-14
   7.13000011      -7.84604044E-14
   7.24499989      -6.41308973E-14
   7.36000013      -3.57423001E-14
   7.47499990       5.86488366E-15
   7.59000015       5.77092559E-14
   7.70499992       1.14688776E-13
   7.82000017       1.69912695E-13
   7.93499994       2.15347990E-13
   8.05000019       2.42739205E-13
   8.16499996       2.44717170E-13
   8.27999973       2.15974862E-13
   8.39500046       1.54364816E-13
   8.51000023       6.17649852E-14
   8.62500000      -5.54286570E-14
   8.73999977      -1.86291412E-13
   8.85499954      -3.15903147E-13
   8.97000027      -4.26427014E-13
   9.08500004      -4.98672230E-13
   9.19999981      -5.14019437E-13
   9.31499958      -4.56538995E-13
   9.43000031      -3.15102762E-13
   9.54500008      -8.52803478E-14
   9.65999985       2.29176080E-13
   9.77499962       6.15418198E-13
   9.89000034       1.05127040E-12
   10.0050001       1.50573250E-12
   10.1199999       1.94020321E-12
   10.2349997       2.31035547E-12
   10.3500004       2.56854997E-12
   10.4650002       2.66663232E-12
   10.5799999       2.55895804E-12
   10.6949997       2.20547278E-12
   10.8100004       1.57470044E-12
   10.9250002       6.46506557E-13
   11.0400000      -5.85473673E-13
   11.1549997      -2.11182807E-12
   11.2700005      -3.90586131E-12
   11.3850002      -5.92264866E-12
   11.5000000      -8.09872482E-12
   11.6149998      -1.03524880E-11
   11.7299995      -1.25853954E-11
   11.8450003      -1.46840422E-11
   11.9600000      -1.65232064E-11
   12.0749998      -1.79699016E-11
   12.1899996      -1.88884759E-11
   12.3050003      -1.91467033E-11
   12.4200001      -1.86227804E-11
   12.5349998      -1.72130487E-11
   12.6499996      -1.48401551E-11
   12.7650003      -1.14613943E-11
   12.8800001      -7.07677493E-12
   12.9949999      -1.73643912E-12
   13.1099997       4.45306856E-12
   13.2250004       1.13241265E-11
   13.3400002       1.86454237E-11
   13.4549999       2.61218477E-11
   13.5699997       3.33972849E-11
   13.6850004       4.00606319E-11
   13.8000002       4.56552678E-11
   13.9150000       4.96921428E-11
   14.0299997       5.16663934E-11
   14.1450005       5.10773923E-11
   14.2600002       4.74517335E-11
   14.3750000       4.03686112E-11
   14.4899998       2.94867880E-11
   14.6049995       1.45719929E-11
   14.7200003      -4.47636763E-12
   14.8350000      -2.76006700E-11
   14.9499998      -5.45642281E-11
   15.0649996      -8.49354753E-11
   15.1800003      -1.18079019E-10
   15.2950001      -1.53154434E-10
   15.4099998      -1.89124244E-10
   15.5249996      -2.24771549E-10
   15.6400003      -2.58727900E-10
   15.7550001      -2.89511026E-10
   15.8699999      -3.15571930E-10
   15.9849997      -3.35350303E-10
   16.1000004      -3.47336021E-10
   16.2150002      -3.50135476E-10
   16.3299999      -3.42539302E-10
   16.4449997      -3.23589155E-10
   16.5599995      -2.92640467E-10
   16.6749992      -2.49417847E-10
   16.7900009      -1.94060185E-10
   16.9050007      -1.27152969E-10
   17.0200005      -4.97449200E-11
   17.1350002       3.66523860E-11
   17.2500000       1.30083305E-10
   17.3649998       2.28185651E-10
   17.4799995       3.28246152E-10
   17.5949993       4.27272551E-10
   17.7099991       5.22079380E-10
   17.8250008       6.09384820E-10
   17.9400005       6.85913659E-10
   18.0550003       7.48501816E-10
   18.1700001       7.94197930E-10
   18.2849998       8.20356227E-10
   18.3999996       8.24716351E-10
   18.5149994       8.05465972E-10
   18.6299992       7.61282926E-10
   18.7450008       6.91355195E-10
   18.8600006       5.95377692E-10
   18.9750004       4.73526662E-10
   19.0900002       3.26414562E-10
   19.2049999       1.55027824E-10
   19.3199997      -3.93470569E-11
   19.4349995      -2.55205357E-10
   19.5499992      -4.90907037E-10
   19.6650009      -7.44756257E-10
   19.7800007      -1.01507391E-09
   19.8950005      -1.30025635E-09
   20.0100002      -1.59882130E-09
   20.1250000      -1.90943639E-09
   20.2399998      -2.23093255E-09
   20.3549995      -2.56230126E-09
   20.4699993      -2.90267876E-09
   20.5849991      -3.25132143E-09
   20.7000008      -3.60757424E-09
   20.8150005      -3.97083477E-09
   20.9300003      -4.34052128E-09
   21.0450001      -4.71603956E-09
   21.1599998      -5.09676257E-09
   21.2749996      -5.48201085E-09
   21.3899994      -5.87104765E-09
   21.5049992      -6.26307761E-09
   21.6200008      -6.65725564E-09
   21.7350006      -7.05269887E-09
   21.8500004      -7.44850848E-09
   21.9650002      -7.84378340E-09
   22.0799999      -8.23764523E-09
   22.1949997      -8.62924665E-09
   22.3099995      -9.01778563E-09
   22.4249992      -9.40251166E-09
   22.5400009      -9.78271952E-09
   22.6550007      -1.01577387E-08
   22.7700005      -1.05269207E-08
   22.8850002      -1.08896119E-08
   23.0000000      -1.12451284E-08
   23.1149998      -1.15927188E-08
   23.2299995      -1.19315384E-08
   23.3449993      -1.22606121E-08
   23.4599991      -1.25788011E-08
   23.5750008      -1.28847812E-08
   23.6900005      -1.31770150E-08
   23.8050003      -1.34537395E-08
   23.9200001      -1.37129517E-08
   24.0349998      -1.39524063E-08
   24.1499996      -1.41696157E-08
   24.2649994      -1.43618593E-08
   24.3799992      -1.45261936E-08
   24.4950008      -1.46594692E-08
   24.6100006      -1.47583510E-08
   24.7250004      -1.48193360E-08
   24.8400002      -1.48387800E-08
   24.9549999      -1.48129233E-08
   25.0699997      -1.47379167E-08
   25.1849995      -1.46098582E-08
   25.2999992      -1.44248258E-08
   25.4150009      -1.41789238E-08
   25.5300007      -1.38683287E-08
   25.6450005      -1.34893465E-08
   25.7600002      -1.30384743E-08
   25.8750000      -1.25124711E-08
   25.9899998      -1.19084298E-08
   26.1049995      -1.12238538E-08
   26.2199993      -1.04567359E-08
   26.3349991      -9.60562563E-09
   26.4500008      -8.66969163E-09
   26.5650005      -7.64877317E-09
   26.6800003      -6.54340537E-09
   26.7950001      -5.35483125E-09
   26.9099998      -4.08498213E-09
   27.0249996      -2.73643663E-09
   27.1399994      -1.31234734E-09
   27.2549992       1.83654203E-10
   27.3700008       1.74757442E-09
   27.4850006       3.37519412E-09
   27.6000004       5.06221465E-09
   27.7150002       6.80441214E-09
   27.8299999       8.59778293E-09
   27.9449997       1.04386837E-08
   28.0599995       1.23239525E-08
   28.1749992       1.42510057E-08
   28.2900009       1.62179159E-08
   28.4050007       1.82234512E-08
   28.5200005       2.02670840E-08
   28.6350002       2.23489884E-08
   28.7500000       2.44699798E-08
   28.8649998       2.66314668E-08
   28.9799995       2.88353732E-08
   29.0949993       3.10840349E-08
   29.2099991       3.33801324E-08
   29.3250008       3.57265790E-08
   29.4400005       3.81264513E-08
   29.5550003       4.05829148E-08
   29.6700001       4.30991740E-08
   29.7849998       4.56784264E-08
   29.8999996       4.83238480E-08
   30.0149994       5.10385760E-08
   30.1299992       5.38257154E-08
   30.2450008       5.66883429E-08
   30.3600006       5.96295280E-08
   30.4750004       6.26523686E-08
   30.5900002       6.57599415E-08
   30.7049999       6.89554014E-08
   30.8199997       7.22418889E-08
   30.9349995       7.56225447E-08
   31.0499992       7.91005164E-08
   31.1650009       8.26788664E-08
   31.2800007       8.63605223E-08
   31.3950005       9.01482409E-08
   31.5100002       9.40444949E-08
   31.6250000       9.80514372E-08
   31.7399998       1.02170809E-07
   31.8549995       1.06403874E-07
   31.9699993       1.10751365E-07
   32.0849991       1.15213432E-07
   32.2000008       1.19789647E-07
   32.3149986       1.24478944E-07
   32.4300003       1.29279726E-07
   32.5449982       1.34189833E-07
   32.6599998       1.39206577E-07
   32.7750015       1.44326947E-07
   32.8899994       1.49547517E-07
   33.0050011       1.54864708E-07
   33.1199989       1.60274780E-07
   33.2350006       1.65773969E-07
   33.3499985       1.71358550E-07
   33.4650002       1.77024958E-07
   33.5800018       1.82769824E-07
   33.6949997       1.88589979E-07
   33.8100014       1.94482652E-07
   33.9249992       2.00445299E-07
   34.0400009       2.06475733E-07
   34.1549988       2.12572090E-07
   34.2700005       2.18732779E-07
   34.3849983       2.24956580E-07
   34.5000000       2.31242510E-07
   34.6150017       2.37589958E-07
   34.7299995       2.43998642E-07
   34.8450012       2.50468446E-07
   34.9599991       2.56999726E-07
   35.0750008       2.63593023E-07
   35.1899986       2.70249302E-07
   35.3050003       2.76969729E-07
   35.4199982       2.83755895E-07
   35.5349998       2.90609535E-07
   35.6500015       2.97532637E-07
   35.7649994       3.04527390E-07
   35.8800011       3.11596096E-07
   35.9949989       3.18741002E-07
   36.1100006       3.25964322E-07
   36.2249985       3.33268190E-07
   36.3400002       3.40654509E-07
   36.4550018       3.48124843E-07
   36.5699997       3.55680555E-07
   36.6850014       3.63322613E-07
   36.7999992       3.71051726E-07
   36.9150009       3.78868208E-07
   37.0299988       3.86772200E-07
   37.1450005       3.94763646E-07
   37.2599983       4.02842346E-07
   37.3750000       4.11008074E-07
   37.4900017       4.19260601E-07
   37.6049995       4.27599900E-07
   37.7200012       4.36026085E-07
   37.8349991       4.44539609E-07
   37.9500008       4.53141183E-07
   38.0649986       4.61831746E-07
   38.1800003       4.70612406E-07
   38.2949982       4.79484584E-07
   38.4099998       4.88449814E-07
   38.5250015       4.97509404E-07
   38.6399994       5.06664776E-07
   38.7550011       5.15917066E-07
   38.8699989       5.25267069E-07
   38.9850006       5.34715355E-07
   39.0999985       5.44261979E-07
   39.2150002       5.53906773E-07
   39.3300018       5.63649166E-07
   39.4449997       5.73487910E-07
   39.5600014       5.83421922E-07
   39.6749992       5.93449499E-07
   39.7900009       6.03569163E-07
   39.9049988       6.13778923E-07
   40.0200005       6.24077188E-07
   40.1349983       6.34462538E-07
   40.2500000       6.44933493E-07
   40.3650017       6.55488975E-07
   40.4799995       6.66128130E-07
   40.5950012       6.76850505E-07
   40.7099991       6.87655643E-07
   40.8250008       6.98543374E-07
   40.9399986       7.09513529E-07
   41.0550003       7.20565879E-07
   41.1699982       7.31700084E-07
   41.2849998       7.42915290E-07
   41.4000015       7.54210532E-07
   41.5149994       7.65584218E-07
   41.6300011       7.77034188E-07
   41.7449989       7.88557827E-07
   41.8600006       8.00151838E-07
   41.9749985       8.11812583E-07
   42.0900002       8.23535743E-07
   42.2050018       8.35316598E-07
   42.3199997       8.47150602E-07
   42.4350014       8.59032525E-07
   42.5499992       8.70957592E-07
   42.6650009       8.82920801E-07
   42.7799988       8.94917775E-07
   42.8950005       9.06944535E-07
   43.0099983       9.18997671E-07
   43.1250000       9.31074680E-07
   43.2400017       9.43173234E-07
   43.3549995       9.55292080E-07
   43.4700012       9.67430537E-07
   43.5849991       9.79588208E-07
   43.7000008       9.91765432E-07
   43.8149986       1.00396267E-06
   43.9300003       1.01618082E-06
   44.0449982       1.02842034E-06
   44.1599998       1.04068226E-06
   44.2750015       1.05296681E-06
   44.3899994       1.06527443E-06
   44.5050011       1.07760468E-06
   44.6199989       1.08995732E-06
   44.7350006       1.10233123E-06
   44.8499985       1.11472536E-06
   44.9650002       1.12713792E-06
   45.0800018       1.13956730E-06
   45.1949997       1.15201146E-06
   45.3100014       1.16446847E-06
   45.4249992       1.17693617E-06
   45.5400009       1.18941261E-06
   45.6549988       1.20189600E-06
   45.7700005       1.21438450E-06
   45.8849983       1.22687641E-06
   46.0000000       1.23937048E-06
   46.1150017       1.25186511E-06
   46.2299995       1.26435918E-06
   46.3450012       1.27685098E-06
   46.4599991       1.28933891E-06
   46.5750008       1.30182093E-06
   46.6899986       1.31429454E-06
   46.8050003       1.32675677E-06
   46.9199982       1.33920378E-06
   47.0349998       1.35163179E-06
   47.1500015       1.36403560E-06
   47.2649994       1.37640984E-06
   47.3800011       1.38874839E-06
   47.4949989       1.40104464E-06
   47.6100006       1.41329156E-06
   47.7249985       1.42548140E-06
   47.8400002       1.43760622E-06
   47.9550018       1.44965816E-06
   48.0699997       1.46162893E-06
   48.1850014       1.47351102E-06
   48.2999992       1.48529648E-06
   48.4150009       1.49697837E-06
   48.5299988       1.50855010E-06
   48.6450005       1.52000575E-06
   48.7599983       1.53133999E-06
   48.8750000       1.54254781E-06
   48.9900017       1.55362522E-06
   49.1049995       1.56456781E-06
   49.2200012       1.57537272E-06
   49.3349991       1.58603666E-06
   49.4500008       1.59655690E-06
   49.5649986       1.60693082E-06
   49.6800003       1.61715627E-06
   49.7949982       1.62723120E-06
   49.9099998       1.63715322E-06
   50.0250015       1.64692051E-06
   50.1399994       1.65653080E-06
   50.2550011       1.66598170E-06
   50.3699989       1.67527048E-06
   50.4850006       1.68439476E-06
   50.5999985       1.69335135E-06
   50.7150002       1.70213752E-06
   50.8300018       1.71075044E-06
   50.9449997       1.71918748E-06
   51.0600014       1.72744615E-06
   51.1749992       1.73552394E-06
   51.2900009       1.74341812E-06
   51.4049988       1.75112586E-06
   51.5200005       1.75864477E-06
   51.6349983       1.76597166E-06
   51.7500000       1.77310312E-06
   51.8650017       1.78003575E-06
   51.9799995       1.78676578E-06
   52.0950012       1.79328845E-06
   52.2099991       1.79959954E-06
   52.3250008       1.80569452E-06
   52.4399986       1.81156872E-06
   52.5550003       1.81721657E-06
   52.6699982       1.82263307E-06
   52.7849998       1.82781264E-06
   52.9000015       1.83274972E-06
   53.0149994       1.83743828E-06
   53.1300011       1.84187252E-06
   53.2449989       1.84604710E-06
   53.3600006       1.84995656E-06
   53.4749985       1.85359568E-06
   53.5900002       1.85695978E-06
   53.7050018       1.86004445E-06
   53.8199997       1.86284569E-06
   53.9350014       1.86535931E-06
   54.0499992       1.86758166E-06
   54.1650009       1.86950888E-06
   54.2799988       1.87113733E-06
   54.3950005       1.87246292E-06
   54.5099983       1.87348212E-06
   54.6250000       1.87419073E-06
   54.7400017       1.87458556E-06
   54.8549995       1.87466298E-06
   54.9700012       1.87441947E-06
   55.0849991       1.87385160E-06
   55.2000008       1.87295632E-06
   55.3149986       1.87172986E-06
   55.4300003       1.87016883E-06
   55.5449982       1.86826981E-06
   55.6599998       1.86602927E-06
   55.7750015       1.86344357E-06
   55.8899994       1.86050943E-06
   56.0050011       1.85722342E-06
   56.1199989       1.85358249E-06
   56.2350006       1.84958412E-06
   56.3499985       1.84522560E-06
   56.4650002       1.84050509E-06
   56.5800018       1.83542033E-06
   56.6949997       1.82997019E-06
   56.8100014       1.82415283E-06
   56.9249992       1.81796736E-06
   57.0400009       1.81141331E-06
   57.1549988       1.80448978E-06
   57.2700005       1.79719700E-06
   57.3849983       1.78953496E-06
   57.5000000       1.78150424E-06
   57.6150017       1.77310585E-06
   57.7299995       1.76434071E-06
   57.8450012       1.75520984E-06
   57.9599991       1.74571426E-06
   58.0750008       1.73585386E-06
   58.1899986       1.72562909E-06
   58.3050003       1.71503928E-06
   58.4199982       1.70408293E-06
   58.5349998       1.69275825E-06
   58.6500015       1.68106305E-06
   58.7649994       1.66899440E-06
   58.8800011       1.65654899E-06
   58.9949989       1.64372318E-06
   59.1100006       1.63051391E-06
   59.2249985       1.61691730E-06
   59.3400002       1.60293018E-06
   59.4550018       1.58854937E-06
   59.5699997       1.57377201E-06
   59.6850014       1.55859607E-06
   59.7999992       1.54302018E-06
   59.9150009       1.52704422E-06
   60.0299988       1.51066831E-06
   60.1450005       1.49389382E-06
   60.2599983       1.47672256E-06
   60.3750000       1.45915760E-06
   60.4900017       1.44120145E-06
   60.6049995       1.42285808E-06
   60.7200012       1.40413078E-06
   60.8349991       1.38502276E-06
   60.9500008       1.36553672E-06
   61.0649986       1.34567529E-06
   61.1800003       1.32544108E-06
   61.2949982       1.30483545E-06
   61.4099998       1.28386023E-06
   61.5250015       1.26251621E-06
   61.6399994       1.24080452E-06
   61.7550011       1.21872608E-06
   61.8699989       1.19628135E-06
   61.9850006       1.17347088E-06
   62.0999985       1.15029559E-06
   62.2150002       1.12675650E-06
   62.3300018       1.10285509E-06
   62.4449997       1.07859353E-06
   62.5600014       1.05397453E-06
   62.6749992       1.02900106E-06
   62.7900009       1.00367708E-06
   62.9049988       9.78007165E-07
   63.0200005       9.51996014E-07
   63.1349983       9.25648749E-07
   63.2500000       8.98970768E-07
   63.3650017       8.71967188E-07
   63.4799995       8.44642670E-07
   63.5950012       8.17002103E-07
   63.7099991       7.89049523E-07
   63.8250008       7.60788794E-07
   63.9399986       7.32223896E-07
   64.0550003       7.03357500E-07
   64.1699982       6.74192677E-07
   64.2850037       6.44732211E-07
   64.4000015       6.14978376E-07
   64.5149994       5.84933446E-07
   64.6299973       5.54599637E-07
   64.7450027       5.23979338E-07
   64.8600006       4.93075277E-07
   64.9749985       4.61890323E-07
   65.0899963       4.30427974E-07
   65.2050018       3.98692407E-07
   65.3199997       3.66688454E-07
   65.4349976       3.34421543E-07
   65.5500031       3.01898041E-07
   65.6650009       2.69125081E-07
   65.7799988       2.36109955E-07
   65.8949966       2.02860662E-07
   66.0100021       1.69385856E-07
   66.1250000       1.35694506E-07
   66.2399979       1.01795749E-07
   66.3550034       6.76990908E-08
   66.4700012       3.34142776E-08
   66.5849991      -1.04925924E-09
   66.6999969      -3.56818433E-08
   66.8150024      -7.04740799E-08
   66.9300003      -1.05416675E-07
   67.0449982      -1.40500930E-07
   67.1600037      -1.75718810E-07
   67.2750015      -2.11062726E-07
   67.3899994      -2.46525389E-07
   67.5049973      -2.82100729E-07
   67.6200027      -3.17782479E-07
   67.7350006      -3.53565639E-07
   67.8499985      -3.89444835E-07
   67.9649963      -4.25415465E-07
   68.0800018      -4.61472865E-07
   68.1949997      -4.97612348E-07
   68.3099976      -5.33829393E-07
   68.4250031      -5.70118857E-07
   68.5400009      -6.06475908E-07
   68.6549988      -6.42895259E-07
   68.7699966      -6.79370942E-07
   68.8850021      -7.15897329E-07
   69.0000000      -7.52467713E-07
   69.1149979      -7.89074704E-07
   69.2300034      -8.25710686E-07
   69.3450012      -8.62367926E-07
   69.4599991      -8.99037559E-07
   69.5749969      -9.35711057E-07
   69.6900024      -9.72379553E-07
   69.8050003      -1.00903378E-06
   69.9199982      -1.04566561E-06
   70.0350037      -1.08226595E-06
   70.1500015      -1.11882662E-06
   70.2649994      -1.15533987E-06
   70.3799973      -1.19179799E-06
   70.4950027      -1.22819358E-06
   70.6100006      -1.26451903E-06
   70.7249985      -1.30076762E-06
   70.8399963      -1.33693163E-06
   70.9550018      -1.37300378E-06
   71.0699997      -1.40897669E-06
   71.1849976      -1.44484295E-06
   71.3000031      -1.48059462E-06
   71.4150009      -1.51622453E-06
   71.5299988      -1.55172449E-06
   71.6449966      -1.58708644E-06
   71.7600021      -1.62230197E-06
   71.8750000      -1.65736276E-06
   71.9899979      -1.69225984E-06
   72.1050034      -1.72698412E-06
   72.2200012      -1.76152685E-06
   72.3349991      -1.79587880E-06
   72.4499969      -1.83003135E-06
   72.5650024      -1.86397665E-06
   72.6800003      -1.89770628E-06
   72.7949982      -1.93121355E-06
   72.9100037      -1.96449105E-06
   73.0250015      -1.99753231E-06
   73.1399994      -2.03033096E-06
   73.2549973      -2.06288064E-06
   73.3700027      -2.09517498E-06
   73.4850006      -2.12720806E-06
   73.5999985      -2.15897262E-06
   73.7149963      -2.19046228E-06
   73.8300018      -2.22167023E-06
   73.9449997      -2.25258941E-06
   74.0599976      -2.28321323E-06
   74.1750031      -2.31353442E-06
   74.2900009      -2.34354548E-06
   74.4049988      -2.37323866E-06
   74.5199966      -2.40260533E-06
   74.6350021      -2.43163618E-06
   74.7500000      -2.46032209E-06
   74.8649979      -2.48865263E-06
   74.9800034      -2.51661891E-06
   75.0950012      -2.54421047E-06
   75.2099991      -2.57141778E-06
   75.3249969      -2.59823173E-06
   75.4400024      -2.62464300E-06
   75.5550003      -2.65064295E-06
   75.6699982      -2.67622272E-06
   75.7850037      -2.70137411E-06
   75.9000015      -2.72608804E-06
   76.0149994      -2.75035632E-06
   76.1299973      -2.77417098E-06
   76.2450027      -2.79752430E-06
   76.3600006      -2.82040946E-06
   76.4749985      -2.84281987E-06
   76.5899963      -2.86475074E-06
   76.7050018      -2.88619731E-06
   76.8199997      -2.90715525E-06
   76.9349976      -2.92762138E-06
   77.0500031      -2.94759252E-06
   77.1650009      -2.96706594E-06
   77.2799988      -2.98603959E-06
   77.3949966      -3.00451143E-06
   77.5100021      -3.02248009E-06
   77.6250000      -3.03994398E-06
   77.7399979      -3.05690241E-06
   77.8550034      -3.07335449E-06
   77.9700012      -3.08929907E-06
   78.0849991      -3.10473547E-06
   78.1999969      -3.11966301E-06
   78.3150024      -3.13407941E-06
   78.4300003      -3.14798217E-06
   78.5449982      -3.16136880E-06
   78.6600037      -3.17423496E-06
   78.7750015      -3.18657726E-06
   78.8899994      -3.19839069E-06
   79.0049973      -3.20967160E-06
   79.1200027      -3.22041546E-06
   79.2350006      -3.23061772E-06
   79.3499985      -3.24027474E-06
   79.4649963      -3.24938264E-06
   79.5800018      -3.25793758E-06
   79.6949997      -3.26593613E-06
   79.8099976      -3.27337466E-06
   79.9250031      -3.28024930E-06
   80.0400009      -3.28655801E-06
   80.1549988      -3.29229761E-06
   80.2699966      -3.29746535E-06
   80.3850021      -3.30205989E-06
   80.5000000      -3.30607872E-06
   80.6149979      -3.30952093E-06
   80.7300034      -3.31238493E-06
   80.8450012      -3.31466867E-06
   80.9599991      -3.31637034E-06
   81.0749969      -3.31748765E-06
   81.1900024      -3.31801857E-06
   81.3050003      -3.31796127E-06
   81.4199982      -3.31731371E-06
   81.5350037      -3.31607384E-06
   81.6500015      -3.31424121E-06
   81.7649994      -3.31181491E-06
   81.8799973      -3.30879561E-06
   81.9950027      -3.30518333E-06
   82.1100006      -3.30097851E-06
   82.2249985      -3.29618251E-06
   82.3399963      -3.29079580E-06
   82.4550018      -3.28481997E-06
   82.5699997      -3.27825660E-06
   82.6849976      -3.27110638E-06
   82.8000031      -3.26337249E-06
   82.9150009      -3.25505630E-06
   83.0299988      -3.24616053E-06
   83.1449966      -3.23668883E-06
   83.2600021      -3.22664346E-06
   83.3750000      -3.21602806E-06
   83.4899979      -3.20484446E-06
   83.6050034      -3.19309584E-06
   83.7200012      -3.18078423E-06
   83.8349991      -3.16791238E-06
   83.9499969      -3.15448210E-06
   84.0650024      -3.14049544E-06
   84.1800003      -3.12595603E-06
   84.2949982      -3.11086660E-06
   84.4100037      -3.09523057E-06
   84.5250015      -3.07905157E-06
   84.6399994      -3.06233346E-06
   84.7549973      -3.04508012E-06
   84.8700027      -3.02729495E-06
   84.9850006      -3.00898250E-06
   85.0999985      -2.99014687E-06
   85.2149963      -2.97079237E-06
   85.3300018      -2.95092377E-06
   85.4449997      -2.93054677E-06
   85.5599976      -2.90966636E-06
   85.6750031      -2.88828960E-06
   85.7900009      -2.86642239E-06
   85.9049988      -2.84407156E-06
   86.0199966      -2.82124438E-06
   86.1350021      -2.79794699E-06
   86.2500000      -2.77418644E-06
   86.3649979      -2.74996910E-06
   86.4800034      -2.72530156E-06
   86.5950012      -2.70018950E-06
   86.7099991      -2.67463929E-06
   86.8249969      -2.64865707E-06
   86.9400024      -2.62224899E-06
   87.0550003      -2.59542139E-06
   87.1699982      -2.56818021E-06
   87.2850037      -2.54053111E-06
   87.4000015      -2.51248071E-06
   87.5149994      -2.48403467E-06
   87.6299973      -2.45519800E-06
   87.7450027      -2.42597753E-06
   87.8600006      -2.39637779E-06
   87.9749985      -2.36640471E-06
   88.0899963      -2.33606420E-06
   88.2050018      -2.30536352E-06
   88.3199997      -2.27430951E-06
   88.4349976      -2.24290966E-06
   88.5500031      -2.21117261E-06
   88.6650009      -2.17910542E-06
   88.7799988      -2.14671650E-06
   88.8949966      -2.11401357E-06
   89.0100021      -2.08100391E-06
   89.1250000      -2.04769572E-06
   89.2399979      -2.01409557E-06
   89.3550034      -1.98021121E-06
   89.4700012      -1.94605150E-06
   89.5849991      -1.91162417E-06
   89.6999969      -1.87693877E-06
   89.8150024      -1.84200496E-06
   89.9300003      -1.80683162E-06
   90.0449982      -1.77142897E-06
   90.1600037      -1.73580656E-06
   90.2750015      -1.69997395E-06
   90.3899994      -1.66394079E-06
   90.5049973      -1.62771664E-06
   90.6200027      -1.59131127E-06
   90.7350006      -1.55473424E-06
   90.8499985      -1.51799543E-06
   90.9649963      -1.48110462E-06
   91.0800018      -1.44407159E-06
   91.1949997      -1.40690497E-06
   91.3099976      -1.36961387E-06
   91.4250031      -1.33220681E-06
   91.5400009      -1.29469106E-06
   91.6549988      -1.25707368E-06
   91.7699966      -1.21936193E-06
   91.8850021      -1.18156265E-06
   92.0000000      -1.14368356E-06
   92.1149979      -1.10573251E-06
   92.2300034      -1.06771802E-06
   92.3450012      -1.02964941E-06
   92.4599991      -9.91536353E-07
   92.5749969      -9.53389133E-07
   92.6900024      -9.15218266E-07
   92.8050003      -8.77034495E-07
   92.9199982      -8.38847939E-07
   93.0350037      -8.00669682E-07
   93.1500015      -7.62511092E-07
   93.2649994      -7.24382744E-07
   93.3799973      -6.86296517E-07
   93.4950027      -6.48264233E-07
   93.6100006      -6.10297718E-07
   93.7249985      -5.72408226E-07
   93.8399963      -5.34606158E-07
   93.9550018      -4.96901407E-07
   94.0699997      -4.59303124E-07
   94.1849976      -4.21819266E-07
   94.3000031      -3.84456627E-07
   94.4150009      -3.47221516E-07
   94.5299988      -3.10119930E-07
   94.6449966      -2.73158150E-07
   94.7600021      -2.36341862E-07
   94.8750000      -1.99678070E-07
   94.9899979      -1.63173297E-07
   95.1050034      -1.26834877E-07
   95.2200012      -9.06705608E-08
   95.3349991      -5.46881722E-08
   95.4499969      -1.88958413E-08
   95.5650024       1.66980030E-08
   95.6800003       5.20838981E-08
   95.7949982       8.72524382E-08
   95.9100037       1.22193157E-07
   96.0250015       1.56895098E-07
   96.1399994       1.91346970E-07
   96.2549973       2.25537292E-07
   96.3700027       2.59455163E-07
   96.4850006       2.93089784E-07
   96.5999985       3.26431802E-07
   96.7149963       3.59472722E-07
   96.8300018       3.92204868E-07
   96.9449997       4.24621760E-07
   97.0599976       4.56717657E-07
   97.1750031       4.88487331E-07
   97.2900009       5.19925322E-07
   97.4049988       5.51026972E-07
   97.5199966       5.81786765E-07
   97.6350021       6.12199358E-07
   97.7500000       6.42259465E-07
   97.8649979       6.71961573E-07
   97.9800034       7.01299996E-07
   98.0950012       7.30268482E-07
   98.2099991       7.58860892E-07
   98.3249969       7.87070292E-07
   98.4400024       8.14888949E-07