   0.00000000       0.00000000    
  0.115000002       0.00000000    
  0.230000004       0.00000000    
  0.344999999      -6.70125197E-22
  0.460000008      -4.36675229E-21
  0.574999988      -1.44104265E-20
  0.689999998      -3.15241375E-20
  0.805000007      -4.91900529E-20
  0.920000017      -5.27242531E-20
   1.03499997      -2.75981606E-20
   1.14999998       2.09781792E-20
   1.26499999       4.28097374E-20
   1.38000000      -7.39592461E-20
   1.49500000      -4.92663241E-19
   1.61000001      -1.37928541E-18
   1.72500002      -2.82330846E-18
   1.84000003      -4.76693310E-18
   1.95500004      -7.01045164E-18
   2.06999993      -9.37124662E-18
   2.18499994      -1.20450145E-17
   2.29999995      -1.61395097E-17
   2.41499996      -2.42301285E-17
   2.52999997      -4.06543191E-17
   2.64499998      -7.11715861E-17
   2.75999999      -1.21633468E-16
   2.87500000      -1.95486416E-16
   2.99000001      -2.90288647E-16
   3.10500002      -3.93913281E-16
   3.22000003      -4.81623093E-16
   3.33500004      -5.15560844E-16
   3.45000005      -4.48209496E-16
   3.56500006      -2.30884241E-16
   3.68000007       1.72735283E-16
   3.79500008       7.69534832E-16
   3.91000009       1.51955011E-15
   4.02500010       2.32283857E-15
   4.13999987       3.01596775E-15
   4.25500011       3.38295621E-15
   4.36999989       3.18357460E-15
   4.48500013       2.19860446E-15
   4.59999990       2.87406458E-16
   4.71500015      -2.55125794E-15
   4.82999992      -6.12774000E-15
   4.94500017      -1.00335872E-14
   5.05999994      -1.36502883E-14
   5.17500019      -1.62035387E-14
   5.28999996      -1.68646903E-14
   5.40500021      -1.48918811E-14
   5.51999998      -9.79361432E-15
   5.63500023      -1.48925237E-15
   5.75000000       9.56437671E-15
   5.86499977       2.23112358E-14
   5.98000002       3.51250570E-14
   6.09499979       4.59436905E-14
   6.21000004       5.25081247E-14
   6.32499981       5.26872111E-14
   6.44000006       4.48512009E-14
   6.55499983       2.82424671E-14
   6.67000008       3.28307090E-15
   6.78499985      -2.82414879E-14
   6.90000010      -6.31735671E-14
   7.01499987      -9.71822923E-14
   7.13000011      -1.25176250E-13
   7.24499989      -1.41904134E-13
   7.36000013      -1.42686481E-13
   7.47499990      -1.24191971E-13
   7.59000015      -8.51536859E-14
   7.70499992      -2.69126626E-14
   7.82000017       4.63154465E-14
   7.93499994       1.27530541E-13
   8.05000019       2.07437732E-13
   8.16499996       2.75329076E-13
   8.27999973       3.20296741E-13
   8.39500046       3.32664072E-13
   8.51000023       3.05477350E-13
   8.62500000       2.35871110E-13
   8.73999977       1.26114722E-13
   8.85499954      -1.58405410E-14
   8.97000027      -1.76451383E-13
   9.08500004      -3.37388320E-13
   9.19999981      -4.77057521E-13
   9.31499958      -5.72752837E-13
   9.43000031      -6.03266352E-13
   9.54500008      -5.51707985E-13
   9.65999985      -4.08231175E-13
   9.77499962      -1.72330547E-13
   9.89000034       1.45615033E-13
   10.0050001       5.23834394E-13
   10.1199999       9.29897001E-13
   10.2349997       1.32277045E-12
   10.3500004       1.65615698E-12
   10.4650002       1.88290833E-12
   10.5799999       1.96017833E-12
   10.6949997       1.85484245E-12
   10.8100004       1.54862592E-12
   10.9250002       1.04234124E-12
   11.0400000       3.58654214E-13
   11.1549997      -4.57124193E-13
   11.2700005      -1.33857682E-12
   11.3850002      -2.20221302E-12
   11.5000000      -2.95393397E-12
   11.6149998      -3.49760932E-12
   11.7299995      -3.74520467E-12
   11.8450003      -3.62768648E-12
   11.9600000      -3.10574982E-12
   12.0749998      -2.17932638E-12
   12.1899996      -8.94793896E-13
   12.3050003       6.51102327E-13
   12.4200001       2.31148347E-12
   12.5349998       3.89430979E-12
   12.6499996       5.17240330E-12
   12.7650003       5.89842194E-12
   12.8800001       5.82432323E-12
   12.9949999       4.72438234E-12
   13.1099997       2.42050564E-12
   13.2250004      -1.19183461E-12
   13.3400002      -6.11893262E-12
   13.4549999      -1.22475554E-11
   13.5699997      -1.93291026E-11
   13.6850004      -2.69712273E-11
   13.8000002      -3.46386357E-11
   13.9150000      -4.16643421E-11
   14.0299997      -4.72720751E-11
   14.1450005      -5.06098462E-11
   14.2600002      -5.07938101E-11
   14.3750000      -4.69609074E-11
   14.4899998      -3.83276882E-11
   14.6049995      -2.42522270E-11
   14.7200003      -4.29536094E-12
   14.8350000       2.17228752E-11
   14.9499998       5.36758277E-11
   15.0649996       9.10958253E-11
   15.1800003       1.33156292E-10
   15.2950001       1.78673173E-10
   15.4099998       2.26127117E-10
   15.5249996       2.73706835E-10
   15.6400003       3.19372806E-10
   15.7550001       3.60938612E-10
   15.8699999       3.96166572E-10
   15.9849997       4.22872654E-10
   16.1000004       4.39035419E-10
   16.2150002       4.42902770E-10
   16.3299999       4.33090702E-10
   16.4449997       4.08668321E-10
   16.5599995       3.69224540E-10
   16.6749992       3.14912207E-10
   16.7900009       2.46467680E-10
   16.9050007       1.65204364E-10
   17.0200005       7.29809685E-11
   17.1350002      -2.78538061E-11
   17.2500000      -1.34537048E-10
   17.3649998      -2.43983889E-10
   17.4799995      -3.52891466E-10
   17.5949993      -4.57849453E-10
   17.7099991      -5.55452240E-10
   17.8250008      -6.42407516E-10
   17.9400005      -7.15637438E-10
   18.0550003      -7.72368391E-10
   18.1700001      -8.10206569E-10
   18.2849998      -8.27197533E-10
   18.3999996      -8.21868518E-10
   18.5149994      -7.93252797E-10
   18.6299992      -7.40896955E-10
   18.7450008      -6.64851230E-10
   18.8600006      -5.65644531E-10
   18.9750004      -4.44244946E-10
   19.0900002      -3.02008474E-10
   19.2049999      -1.40616463E-10
   19.3199997       3.79948607E-11
   19.4349995       2.31712330E-10
   19.5499992       4.38326819E-10
   19.6650009       6.55616839E-10
   19.7800007       8.81430484E-10
   19.8950005       1.11376386E-09
   20.0100002       1.35083167E-09
   20.1250000       1.59112834E-09
   20.2399998       1.83347537E-09
   20.3549995       2.07705231E-09
   20.4699993       2.32140995E-09
   20.5849991       2.56646282E-09
   20.7000008       2.81246182E-09
   20.8150005       3.05994519E-09
   20.9300003       3.30967365E-09
   21.0450001       3.56254959E-09
   21.1599998       3.81952248E-09
   21.2749996       4.08149337E-09
   21.3899994       4.34921743E-09
   21.5049992       4.62321337E-09
   21.6200008       4.90368501E-09
   21.7350006       5.19046672E-09
   21.8500004       5.48298518E-09
   21.9650002       5.78025405E-09
   22.0799999       6.08089534E-09
   22.1949997       6.38318509E-09
   22.3099995       6.68513067E-09
   22.4249992       6.98456448E-09
   22.5400009       7.27925364E-09
   22.6550007       7.56701812E-09
   22.7700005       7.84585286E-09
   22.8850002       8.11403567E-09
   23.0000000       8.37022540E-09
   23.1149998       8.61353922E-09
   23.2299995       8.84360407E-09
   23.3449993       9.06057629E-09
   23.4599991       9.26513533E-09
   23.5750008       9.45844469E-09
   23.6900005       9.64209157E-09
   23.8050003       9.81799797E-09
   23.9200001       9.98831950E-09
   24.0349998       1.01553290E-08
   24.1499996       1.03213011E-08
   24.2649994       1.04883879E-08
   24.3799992       1.06585123E-08
   24.4950008       1.08332658E-08
   24.6100006       1.10138254E-08
   24.7250004       1.12008802E-08
   24.8400002       1.13945919E-08
   24.9549999       1.15945618E-08
   25.0699997       1.17998162E-08
   25.1849995       1.20088126E-08
   25.2999992       1.22194646E-08
   25.4150009       1.24291670E-08
   25.5300007       1.26348372E-08
   25.6450005       1.28329676E-08
   25.7600002       1.30196707E-08
   25.8750000       1.31907330E-08
   25.9899998       1.33416744E-08
   26.1049995       1.34677984E-08
   26.2199993       1.35642457E-08
   26.3349991       1.36260443E-08
   26.4500008       1.36481626E-08
   26.5650005       1.36255540E-08
   26.6800003       1.35532021E-08
   26.7950001       1.34261642E-08
   26.9099998       1.32396103E-08
   27.0249996       1.29888633E-08
   27.1399994       1.26694264E-08
   27.2549992       1.22770176E-08
   27.3700008       1.18075887E-08
   27.4850006       1.12573444E-08
   27.6000004       1.06227551E-08
   27.7150002       9.90055948E-09
   27.8299999       9.08776698E-09
   27.9449997       8.18164914E-09
   28.0599995       7.17973281E-09
   28.1749992       6.07978601E-09
   28.2900009       4.87980456E-09
   28.4050007       3.57800634E-09
   28.5200005       2.17281859E-09
   28.6350002       6.62883637E-10
   28.7500000      -9.52940948E-10
   28.8649998      -2.67556111E-09
   28.9799995      -4.50562876E-09
   29.0949993      -6.44351239E-09
   29.2099991      -8.48925907E-09
   29.3250008      -1.06425642E-08
   29.4400005      -1.29027304E-08
   29.5550003      -1.52686450E-08
   29.6700001      -1.77387562E-08
   29.7849998      -2.03110702E-08
   29.8999996      -2.29831603E-08
   30.0149994      -2.57522057E-08
   30.1299992      -2.86150303E-08
   30.2450008      -3.15681845E-08
   30.3600006      -3.46080320E-08
   30.4750004      -3.77308531E-08
   30.5900002      -4.09329637E-08
   30.7049999      -4.42108430E-08
   30.8199997      -4.75612332E-08
   30.9349995      -5.09812779E-08
   31.0499992      -5.44686110E-08
   31.1650009      -5.80214348E-08
   31.2800007      -6.16385876E-08
   31.3950005      -6.53195755E-08
   31.5100002      -6.90646047E-08
   31.6250000      -7.28745349E-08
   31.7399998      -7.67509007E-08
   31.8549995      -8.06958198E-08
   31.9699993      -8.47119708E-08
   32.0849991      -8.88025227E-08
   32.2000008      -9.29710282E-08
   32.3149986      -9.72214238E-08
   32.4300003      -1.01557923E-07
   32.5449982      -1.05984981E-07
   32.6599998      -1.10507244E-07
   32.7750015      -1.15129524E-07
   32.8899994      -1.19856722E-07
   33.0050011      -1.24693827E-07
   33.1199989      -1.29645898E-07
   33.2350006      -1.34718007E-07
   33.3499985      -1.39915187E-07
   33.4650002      -1.45242453E-07
   33.5800018      -1.50704750E-07
   33.6949997      -1.56306982E-07
   33.8100014      -1.62053880E-07
   33.9249992      -1.67950063E-07
   34.0400009      -1.74000050E-07
   34.1549988      -1.80208218E-07
   34.2700005      -1.86578859E-07
   34.3849983      -1.93116136E-07
   34.5000000      -1.99824200E-07
   34.6150017      -2.06707099E-07
   34.7299995      -2.13768928E-07
   34.8450012      -2.21013707E-07
   34.9599991      -2.28445543E-07
   35.0750008      -2.36068516E-07
   35.1899986      -2.43886660E-07
   35.3050003      -2.51904027E-07
   35.4199982      -2.60124580E-07
   35.5349998      -2.68552157E-07
   35.6500015      -2.77190424E-07
   35.7649994      -2.86042905E-07
   35.8800011      -2.95112869E-07
   35.9949989      -3.04403386E-07
   36.1100006      -3.13917297E-07
   36.2249985      -3.23657247E-07
   36.3400002      -3.33625707E-07
   36.4550018      -3.43824979E-07
   36.5699997      -3.54257452E-07
   36.6850014      -3.64925342E-07
   36.7999992      -3.75831036E-07
   36.9150009      -3.86976922E-07
   37.0299988      -3.98365557E-07
   37.1450005      -4.09999586E-07
   37.2599983      -4.21881765E-07
   37.3750000      -4.34014964E-07
   37.4900017      -4.46401970E-07
   37.6049995      -4.59045594E-07
   37.7200012      -4.71948482E-07
   37.8349991      -4.85113048E-07
   37.9500008      -4.98541283E-07
   38.0649986      -5.12234806E-07
   38.1800003      -5.26194867E-07
   38.2949982      -5.40421922E-07
   38.4099998      -5.54915971E-07
   38.5250015      -5.69676502E-07
   38.6399994      -5.84702263E-07
   38.7550011      -5.99991608E-07
   38.8699989      -6.15542547E-07
   38.9850006      -6.31352748E-07
   39.0999985      -6.47419768E-07
   39.2150002      -6.63741048E-07
   39.3300018      -6.80314372E-07
   39.4449997      -6.97137637E-07
   39.5600014      -7.14209250E-07
   39.6749992      -7.31528303E-07
   39.7900009      -7.49094113E-07
   39.9049988      -7.66907021E-07
   40.0200005      -7.84967824E-07
   40.1349983      -8.03277715E-07
   40.2500000      -8.21838682E-07
   40.3650017      -8.40653001E-07
   40.4799995      -8.59723173E-07
   40.5950012      -8.79051868E-07
   40.7099991      -8.98641645E-07
   40.8250008      -9.18494891E-07
   40.9399986      -9.38613766E-07
   41.0550003      -9.58999749E-07
   41.1699982      -9.79653919E-07
   41.2849998      -1.00057684E-06
   41.4000015      -1.02176818E-06
   41.5149994      -1.04322726E-06
   41.6300011      -1.06495224E-06
   41.7449989      -1.08694132E-06
   41.8600006      -1.10919143E-06
   41.9749985      -1.13169938E-06
   42.0900002      -1.15446130E-06
   42.2050018      -1.17747311E-06
   42.3199997      -1.20072991E-06
   42.4350014      -1.22422659E-06
   42.5499992      -1.24795804E-06
   42.6650009      -1.27191856E-06
   42.7799988      -1.29610237E-06
   42.8950005      -1.32050332E-06
   43.0099983      -1.34511527E-06
   43.1250000      -1.36993185E-06
   43.2400017      -1.39494659E-06
   43.3549995      -1.42015290E-06
   43.4700012      -1.44554451E-06
   43.5849991      -1.47111462E-06
   43.7000008      -1.49685695E-06
   43.8149986      -1.52276516E-06
   43.9300003      -1.54883298E-06
   44.0449982      -1.57505440E-06
   44.1599998      -1.60142383E-06
   44.2750015      -1.62793549E-06
   44.3899994      -1.65458380E-06
   44.5050011      -1.68136398E-06
   44.6199989      -1.70827059E-06
   44.7350006      -1.73529884E-06
   44.8499985      -1.76244373E-06
   44.9650002      -1.78970038E-06
   45.0800018      -1.81706366E-06
   45.1949997      -1.84452858E-06
   45.3100014      -1.87209002E-06
   45.4249992      -1.89974230E-06
   45.5400009      -1.92747962E-06
   45.6549988      -1.95529606E-06
   45.7700005      -1.98318548E-06
   45.8849983      -2.01114085E-06
   46.0000000      -2.03915579E-06
   46.1150017      -2.06722279E-06
   46.2299995      -2.09533459E-06
   46.3450012      -2.12348368E-06
   46.4599991      -2.15166187E-06
   46.5750008      -2.17986099E-06
   46.6899986      -2.20807306E-06
   46.8050003      -2.23628945E-06
   46.9199982      -2.26450152E-06
   47.0349998      -2.29269995E-06
   47.1500015      -2.32087586E-06
   47.2649994      -2.34901950E-06
   47.3800011      -2.37712175E-06
   47.4949989      -2.40517284E-06
   47.6100006      -2.43316276E-06
   47.7249985      -2.46108198E-06
   47.8400002      -2.48892070E-06
   47.9550018      -2.51666938E-06
   48.0699997      -2.54431802E-06
   48.1850014      -2.57185775E-06
   48.2999992      -2.59927924E-06
   48.4150009      -2.62657363E-06
   48.5299988      -2.65373183E-06
   48.6450005      -2.68074609E-06
   48.7599983      -2.70760779E-06
   48.8750000      -2.73430874E-06
   48.9900017      -2.76084143E-06
   49.1049995      -2.78719813E-06
   49.2200012      -2.81337088E-06
   49.3349991      -2.83935196E-06
   49.4500008      -2.86513318E-06
   49.5649986      -2.89070613E-06
   49.6800003      -2.91606261E-06
   49.7949982      -2.94119332E-06
   49.9099998      -2.96608914E-06
   50.0250015      -2.99074054E-06
   50.1399994      -3.01513774E-06
   50.2550011      -3.03927050E-06
   50.3699989      -3.06312836E-06
   50.4850006      -3.08669996E-06
   50.5999985      -3.10997461E-06
   50.7150002      -3.13294117E-06
   50.8300018      -3.15558759E-06
   50.9449997      -3.17790318E-06
   51.0600014      -3.19987612E-06
   51.1749992      -3.22149549E-06
   51.2900009      -3.24274970E-06
   51.4049988      -3.26362829E-06
   51.5200005      -3.28412079E-06
   51.6349983      -3.30421653E-06
   51.7500000      -3.32390528E-06
   51.8650017      -3.34317747E-06
   51.9799995      -3.36202311E-06
   52.0950012      -3.38043378E-06
   52.2099991      -3.39840017E-06
   52.3250008      -3.41591340E-06
   52.4399986      -3.43296483E-06
   52.5550003      -3.44954628E-06
   52.6699982      -3.46564934E-06
   52.7849998      -3.48126559E-06
   52.9000015      -3.49638731E-06
   53.0149994      -3.51100562E-06
   53.1300011      -3.52511302E-06
   53.2449989      -3.53870041E-06
   53.3600006      -3.55175894E-06
   53.4749985      -3.56428041E-06
   53.5900002      -3.57625504E-06
   53.7050018      -3.58767397E-06
   53.8199997      -3.59852720E-06
   53.9350014      -3.60880540E-06
   54.0499992      -3.61849857E-06
   54.1650009      -3.62759647E-06
   54.2799988      -3.63608910E-06
   54.3950005      -3.64396601E-06
   54.5099983      -3.65121741E-06
   54.6250000      -3.65783330E-06
   54.7400017      -3.66380482E-06
   54.8549995      -3.66912309E-06
   54.9700012      -3.67377856E-06
   55.0849991      -3.67776352E-06
   55.2000008      -3.68107021E-06
   55.3149986      -3.68369092E-06
   55.4300003      -3.68561928E-06
   55.5449982      -3.68684846E-06
   55.6599998      -3.68737210E-06
   55.7750015      -3.68718361E-06
   55.8899994      -3.68627684E-06
   56.0050011      -3.68464521E-06
   56.1199989      -3.68228234E-06
   56.2350006      -3.67918165E-06
   56.3499985      -3.67533653E-06
   56.4650002      -3.67074063E-06
   56.5800018      -3.66538688E-06
   56.6949997      -3.65926803E-06
   56.8100014      -3.65237747E-06
   56.9249992      -3.64470861E-06
   57.0400009      -3.63625486E-06
   57.1549988      -3.62700962E-06
   57.2700005      -3.61696698E-06
   57.3849983      -3.60612080E-06
   57.5000000      -3.59446562E-06
   57.6150017      -3.58199577E-06
   57.7299995      -3.56870669E-06
   57.8450012      -3.55459315E-06
   57.9599991      -3.53965152E-06
   58.0750008      -3.52387724E-06
   58.1899986      -3.50726714E-06
   58.3050003      -3.48981735E-06
   58.4199982      -3.47152536E-06
   58.5349998      -3.45238823E-06
   58.6500015      -3.43240367E-06
   58.7649994      -3.41156942E-06
   58.8800011      -3.38988411E-06
   58.9949989      -3.36734593E-06
   59.1100006      -3.34395395E-06
   59.2249985      -3.31970773E-06
   59.3400002      -3.29460659E-06
   59.4550018      -3.26865120E-06
   59.5699997      -3.24184202E-06
   59.6850014      -3.21418020E-06
   59.7999992      -3.18566799E-06
   59.9150009      -3.15630746E-06
   60.0299988      -3.12610177E-06
   60.1450005      -3.09505413E-06
   60.2599983      -3.06316906E-06
   60.3750000      -3.03045044E-06
   60.4900017      -2.99690350E-06
   60.6049995      -2.96253302E-06
   60.7200012      -2.92734376E-06
   60.8349991      -2.89134073E-06
   60.9500008      -2.85452893E-06
   61.0649986      -2.81691291E-06
   61.1800003      -2.77849722E-06
   61.2949982      -2.73928572E-06
   61.4099998      -2.69928228E-06
   61.5250015      -2.65849076E-06
   61.6399994      -2.61691434E-06
   61.7550011      -2.57455622E-06
   61.8699989      -2.53141934E-06
   61.9850006      -2.48750666E-06
   62.0999985      -2.44282069E-06
   62.2150002      -2.39736482E-06
   62.3300018      -2.35114135E-06
   62.4449997      -2.30415367E-06
   62.5600014      -2.25640474E-06
   62.6749992      -2.20789752E-06
   62.7900009      -2.15863565E-06
   62.9049988      -2.10862231E-06
   63.0200005      -2.05786182E-06
   63.1349983      -2.00635782E-06
   63.2500000      -1.95411508E-06
   63.3650017      -1.90113826E-06
   63.4799995      -1.84743283E-06
   63.5950012      -1.79300446E-06
   63.7099991      -1.73785952E-06
   63.8250008      -1.68200461E-06
   63.9399986      -1.62544745E-06
   64.0550003      -1.56819590E-06
   64.1699982      -1.51025870E-06
   64.2850037      -1.45164495E-06
   64.4000015      -1.39236442E-06
   64.5149994      -1.33242770E-06
   64.6299973      -1.27184558E-06
   64.7450027      -1.21062965E-06
   64.8600006      -1.14879185E-06
   64.9749985      -1.08634492E-06
   65.0899963      -1.02330171E-06
   65.2050018      -9.59675845E-07
   65.3199997      -8.95481207E-07
   65.4349976      -8.30732006E-07
   65.5500031      -7.65442849E-07
   65.6650009      -6.99628345E-07
   65.7799988      -6.33303500E-07
   65.8949966      -5.66483266E-07
   66.0100021      -4.99182363E-07
   66.1250000      -4.31415799E-07
   66.2399979      -3.63197842E-07
   66.3550034      -2.94542758E-07
   66.4700012      -2.25464447E-07
   66.5849991      -1.55976167E-07
   66.6999969      -8.60912621E-08
   66.8150024      -1.58220317E-08
   66.9300003       5.48191217E-08
   67.0449982       1.25820250E-07
   67.1600037       1.97170081E-07
   67.2750015       2.68857264E-07
   67.3899994       3.40870685E-07
   67.5049973       4.13199018E-07
   67.6200027       4.85831038E-07
   67.7350006       5.58755289E-07
   67.8499985       6.31959836E-07
   67.9649963       7.05432171E-07
   68.0800018       7.79159450E-07
   68.1949997       8.53127972E-07
   68.3099976       9.27323015E-07
   68.4250031       1.00172929E-06
   68.5400009       1.07633070E-06
   68.6549988       1.15111004E-06
   68.7699966       1.22604990E-06
   68.8850021       1.30113153E-06
   69.0000000       1.37633606E-06
   69.1149979       1.45164404E-06
   69.2300034       1.52703603E-06
   69.3450012       1.60249238E-06
   69.4599991       1.67799362E-06
   69.5749969       1.75352034E-06
   69.6900024       1.82905376E-06
   69.8050003       1.90457524E-06
   69.9199982       1.98006637E-06
   70.0350037       2.05550964E-06
   70.1500015       2.13088697E-06
   70.2649994       2.20618153E-06
   70.3799973       2.28137492E-06
   70.4950027       2.35644984E-06
   70.6100006       2.43138811E-06
   70.7249985       2.50617131E-06
   70.8399963       2.58078080E-06
   70.9550018       2.65519679E-06
   71.0699997       2.72939997E-06
   71.1849976       2.80337031E-06
   71.3000031       2.87708713E-06
   71.4150009       2.95052996E-06
   71.5299988       3.02367835E-06
   71.6449966       3.09651182E-06
   71.7600021       3.16901082E-06
   71.8750000       3.24115558E-06
   71.9899979       3.31292790E-06
   72.1050034       3.38430891E-06
   72.2200012       3.45528179E-06
   72.3349991       3.52582992E-06
   72.4499969       3.59593764E-06
   72.5650024       3.66558947E-06
   72.6800003       3.73477133E-06
   72.7949982       3.80346887E-06
   72.9100037       3.87166801E-06
   73.0250015       3.93935488E-06
   73.1399994       4.00651516E-06
   73.2549973       4.07313564E-06
   73.3700027       4.13920179E-06
   73.4850006       4.20469951E-06
   73.5999985       4.26961333E-06
   73.7149963       4.33392916E-06
   73.8300018       4.39763244E-06
   73.9449997       4.46070726E-06
   74.0599976       4.52313861E-06
   74.1750031       4.58491149E-06
   74.2900009       4.64600953E-06
   74.4049988       4.70641771E-06
   74.5199966       4.76612058E-06
   74.6350021       4.82510177E-06
   74.7500000       4.88334672E-06
   74.8649979       4.94083906E-06
   74.9800034       4.99756288E-06
   75.0950012       5.05350317E-06
   75.2099991       5.10864356E-06
   75.3249969       5.16296859E-06
   75.4400024       5.21646189E-06
   75.5550003       5.26910708E-06
   75.6699982       5.32088870E-06
   75.7850037       5.37178994E-06
   75.9000015       5.42179532E-06
   76.0149994       5.47088803E-06
   76.1299973       5.51905350E-06
   76.2450027       5.56627629E-06
   76.3600006       5.61254183E-06
   76.4749985       5.65783648E-06
   76.5899963       5.70214706E-06
   76.7050018       5.74546084E-06
   76.8199997       5.78776644E-06
   76.9349976       5.82905386E-06
   77.0500031       5.86931219E-06
   77.1650009       5.90853369E-06
   77.2799988       5.94670837E-06
   77.3949966       5.98382894E-06
   77.5100021       6.01988722E-06
   77.6250000       6.05487412E-06
   77.7399979       6.08878281E-06
   77.8550034       6.12160466E-06
   77.9700012       6.15333056E-06
   78.0849991       6.18395234E-06
   78.1999969       6.21345998E-06
   78.3150024       6.24184531E-06
   78.4300003       6.26909832E-06
   78.5449982       6.29520946E-06
   78.6600037       6.32017009E-06
   78.7750015       6.34397156E-06
   78.8899994       6.36660479E-06
   79.0049973       6.38806205E-06
   79.1200027       6.40833559E-06
   79.2350006       6.42741770E-06
   79.3499985       6.44530246E-06
   79.4649963       6.46198259E-06
   79.5800018       6.47745310E-06
   79.6949997       6.49170897E-06
   79.8099976       6.50474385E-06
   79.9250031       6.51655409E-06
   80.0400009       6.52713470E-06
   80.1549988       6.53648112E-06
   80.2699966       6.54459018E-06
   80.3850021       6.55145777E-06
   80.5000000       6.55707981E-06
   80.6149979       6.56145357E-06
   80.7300034       6.56457496E-06
   80.8450012       6.56644124E-06
   80.9599991       6.56704970E-06
   81.0749969       6.56639713E-06
   81.1900024       6.56448083E-06
   81.3050003       6.56129987E-06
   81.4199982       6.55685153E-06
   81.5350037       6.55113490E-06
   81.6500015       6.54414862E-06
   81.7649994       6.53589314E-06
   81.8799973       6.52636845E-06
   81.9950027       6.51557502E-06
   82.1100006       6.50351512E-06
   82.2249985       6.49019057E-06
   82.3399963       6.47560501E-06
   82.4550018       6.45976115E-06
   82.5699997       6.44266447E-06
   82.6849976       6.42431951E-06
   82.8000031       6.40473172E-06
   82.9150009       6.38390611E-06
   83.0299988       6.36184950E-06
   83.1449966       6.33856689E-06
   83.2600021       6.31406556E-06
   83.3750000       6.28835141E-06
   83.4899979       6.26143083E-06
   83.6050034       6.23330970E-06
   83.7200012       6.20399442E-06
   83.8349991       6.17349087E-06
   83.9499969       6.14180544E-06
   84.0650024       6.10894404E-06
   84.1800003       6.07491211E-06
   84.2949982       6.03971648E-06
   84.4100037       6.00336307E-06
   84.5250015       5.96585824E-06
   84.6399994       5.92720789E-06
   84.7549973       5.88741887E-06
   84.8700027       5.84649797E-06
   84.9850006       5.80445158E-06
   85.0999985       5.76128832E-06
   85.2149963       5.71701548E-06
   85.3300018       5.67164261E-06
   85.4449997       5.62517835E-06
   85.5599976       5.57763360E-06
   85.6750031       5.52901884E-06
   85.7900009       5.47934678E-06
   85.9049988       5.42863017E-06
   86.0199966       5.37688265E-06
   86.1350021       5.32411877E-06
   86.2500000       5.27035445E-06
   86.3649979       5.21560514E-06
   86.4800034       5.15988813E-06
   86.5950012       5.10321979E-06
   86.7099991       5.04561785E-06
   86.8249969       4.98709960E-06
   86.9400024       4.92768277E-06
   87.0550003       4.86738463E-06
   87.1699982       4.80622248E-06
   87.2850037       4.74421358E-06
   87.4000015       4.68137432E-06
   87.5149994       4.61772242E-06
   87.6299973       4.55327199E-06
   87.7450027       4.48803985E-06
   87.8600006       4.42204100E-06
   87.9749985       4.35528909E-06
   88.0899963       4.28779822E-06
   88.2050018       4.21958202E-06
   88.3199997       4.15065369E-06
   88.4349976       4.08102596E-06
   88.5500031       4.01071156E-06
   88.6650009       3.93972277E-06
   88.7799988       3.86807233E-06
   88.8949966       3.79577273E-06
   89.0100021       3.72283716E-06
   89.1250000       3.64927928E-06
   89.2399979       3.57511317E-06
   89.3550034       3.50035452E-06
   89.4700012       3.42501971E-06
   89.5849991       3.34912647E-06
   89.6999969       3.27269368E-06
   89.8150024       3.19574110E-06
   89.9300003       3.11829035E-06
   90.0449982       3.04036303E-06
   90.1600037       2.96198232E-06
   90.2750015       2.88317142E-06
   90.3899994       2.80395420E-06
   90.5049973       2.72435409E-06
   90.6200027       2.64439495E-06
   90.7350006       2.56410021E-06
   90.8499985       2.48349238E-06
   90.9649963       2.40259374E-06
   91.0800018       2.32142565E-06
   91.1949997       2.24000905E-06
   91.3099976       2.15836417E-06
   91.4250031       2.07651033E-06
   91.5400009       1.99446617E-06
   91.6549988       1.91225081E-06
   91.7699966       1.82988197E-06
   91.8850021       1.74737795E-06
   92.0000000       1.66475718E-06
   92.1149979       1.58203807E-06
   92.2300034       1.49923926E-06
   92.3450012       1.41637975E-06
   92.4599991       1.33347896E-06
   92.5749969       1.25055681E-06
   92.6900024       1.16763374E-06
   92.8050003       1.08473046E-06
   92.9199982       1.00186799E-06
   93.0350037       9.19068384E-07
   93.1500015       8.36354104E-07
   93.2649994       7.53747713E-07
   93.3799973       6.71272574E-07
   93.4950027       5.88952162E-07
   93.6100006       5.06810522E-07
   93.7249985       4.24871303E-07
   93.8399963       3.43158604E-07
   93.9550018       2.61695874E-07
   94.0699997       1.80506532E-07
   94.1849976       9.96136507E-08
   94.3000031       1.90395841E-08
   94.4150009      -6.11937523E-08
   94.5299988      -1.41064859E-07
   94.6449966      -2.20552778E-07
   94.7600021      -2.99636866E-07
   94.8750000      -3.78296960E-07
   94.9899979      -4.56513163E-07
   95.1050034      -5.34266007E-07
   95.2200012      -6.11536279E-07
   95.3349991      -6.88304965E-07
   95.4499969      -7.64553135E-07
   95.5650024      -8.40262601E-07
   95.6800003      -9.15415455E-07
   95.7949982      -9.89993850E-07
   95.9100037      -1.06398056E-06
   96.0250015      -1.13735916E-06
   96.1399994      -1.21011306E-06
   96.2549973      -1.28222666E-06
   96.3700027      -1.35368452E-06
   96.4850006      -1.42447118E-06
   96.5999985      -1.49457151E-06
   96.7149963      -1.56397061E-06
   96.8300018      -1.63265304E-06
   96.9449997      -1.70060389E-06
   97.0599976      -1.76780748E-06
   97.1750031      -1.83424777E-06
   97.2900009      -1.89990885E-06
   97.4049988      -1.96477481E-06
   97.5199966      -2.02882961E-06
   97.6350021      -2.09205746E-06
   97.7500000      -2.15444220E-06
   97.8649979      -2.21596861E-06
   97.9800034      -2.27662144E-06
   98.0950012      -2.33638548E-06
   98.2099991      -2.39524616E-06
   98.3249969      -2.45318870E-06
   98.4400024      -2.51019924E-06