   0.00000000       0.00000000    
  0.115000002       0.00000000    
  0.230000004       0.00000000    
  0.344999999      -2.45138321E-23
  0.460000008       1.00471023E-22
  0.574999988       1.55524920E-21
  0.689999998       7.17174396E-21
  0.805000007       1.95961543E-20
  0.920000017       3.42628485E-20
   1.03499997       2.69659926E-20
   1.14999998      -5.84959640E-20
   1.26499999      -3.10254355E-19
   1.38000000      -8.19639672E-19
   1.49500000      -1.61142673E-18
   1.61000001      -2.53530134E-18
   1.72500002      -3.14492477E-18
   1.84000003      -2.61802126E-18
   1.95500004       2.10112445E-19
   2.06999993       6.62874956E-18
   2.18499994       1.76096926E-17
   2.29999995       3.31638446E-17
   2.41499996       5.16044401E-17
   2.52999997       6.89144616E-17
   2.64499998       7.84828370E-17
   2.75999999       7.14911689E-17
   2.87500000       3.81772903E-17
   2.99000001      -2.99373472E-17
   3.10500002      -1.36987727E-16
   3.22000003      -2.79276133E-16
   3.33500004      -4.42041111E-16
   3.45000005      -5.97406091E-16
   3.56500006      -7.04542894E-16
   3.68000007      -7.13007189E-16
   3.79500008      -5.69870109E-16
   3.91000009      -2.30657262E-16
   4.02500010       3.26765115E-16
   4.13999987       1.08725446E-15
   4.25500011       1.98532961E-15
   4.36999989       2.89767600E-15
   4.48500013       3.64514827E-15
   4.59999990       4.00762585E-15
   4.71500015       3.75352232E-15
   4.82999992       2.68320895E-15
   4.94500017       6.82327126E-16
   5.05999994      -2.22262589E-15
   5.17500019      -5.81714742E-15
   5.28999996      -9.67260634E-15
   5.40500021      -1.31534925E-14
   5.51999998      -1.54675433E-14
   5.63500023      -1.57626038E-14
   5.75000000      -1.32659954E-14
   5.86499977      -7.45280404E-15
   5.98000002       1.77991438E-15
   6.09499979       1.39632094E-14
   6.21000004       2.79644590E-14
   6.32499981       4.19855936E-14
   6.44000006       5.36752785E-14
   6.55499983       6.03649211E-14
   6.67000008       5.94195036E-14
   6.78499985       4.86731898E-14
   6.90000010       2.68986256E-14
   7.01499987      -5.75724652E-15
   7.13000011      -4.74470859E-14
   7.24499989      -9.44816735E-14
   7.36000013      -1.41434322E-13
   7.47499990      -1.81527861E-13
   7.59000015      -2.07305324E-13
   7.70499992      -2.11544554E-13
   7.82000017      -1.88333669E-13
   7.93499994      -1.34186824E-13
   8.05000019      -4.90521997E-14
   8.16499996       6.29474297E-14
   8.27999973       1.93190949E-13
   8.39500046       3.28771542E-13
   8.51000023       4.53312762E-13
   8.62500000       5.48386965E-13
   8.73999977       5.95456301E-13
   8.85499954       5.78177317E-13
   8.97000027       4.84840412E-13
   9.08500004       3.10664146E-13
   9.19999981       5.96416091E-14
   9.31499958      -2.54350685E-13
   9.43000031      -6.07424755E-13
   9.54500008      -9.66693631E-13
   9.65999985      -1.29246982E-12
   9.77499962      -1.54157188E-12
   9.89000034      -1.67151991E-12
   10.0050001      -1.64528341E-12
   10.1199999      -1.43614200E-12
   10.2349997      -1.03216285E-12
   10.3500004      -4.39788071E-13
   10.4650002       3.13934236E-13
   10.5799999       1.18085175E-12
   10.6949997       2.09316744E-12
   10.8100004       2.96691794E-12
   10.9250002       3.70734433E-12
   11.0400000       4.21582734E-12
   11.1549997       4.39790955E-12
   11.2700005       4.17178184E-12
   11.3850002       3.47656929E-12
   11.5000000       2.27969965E-12
   11.6149998       5.82732647E-13
   11.7299995      -1.57488540E-12
   11.8450003      -4.11451472E-12
   11.9600000      -6.91964498E-12
   12.0749998      -9.83983641E-12
   12.1899996      -1.26970942E-11
   12.3050003      -1.52943058E-11
   12.4200001      -1.74253112E-11
   12.5349998      -1.88860507E-11
   12.6499996      -1.94862407E-11
   12.7650003      -1.90610704E-11
   12.8800001      -1.74823940E-11
   12.9949999      -1.46690420E-11
   13.1099997      -1.05958228E-11
   13.2250004      -5.30091812E-12
   13.3400002       1.10864811E-12
   13.4549999       8.45379322E-12
   13.5699997       1.64827423E-11
   13.6850004       2.48732909E-11
   13.8000002       3.32383565E-11
   13.9150000       4.11351023E-11
   14.0299997       4.80778195E-11
   14.1450005       5.35546746E-11
   14.2600002       5.70481336E-11
   14.3750000       5.80586135E-11
   14.4899998       5.61306383E-11
   14.6049995       5.08803902E-11
   14.7200003       4.20233189E-11
   14.8350000       2.94000553E-11
   14.9499998       1.29990246E-11
   15.0649996      -7.02619169E-12
   15.1800003      -3.03462741E-11
   15.2950001      -5.64539561E-11
   15.4099998      -8.46709508E-11
   15.5249996      -1.14164636E-10
   15.6400003      -1.43974277E-10
   15.7550001      -1.73046175E-10
   15.8699999      -2.00275893E-10
   15.9849997      -2.24556360E-10
   16.1000004      -2.44828852E-10
   16.2150002      -2.60134331E-10
   16.3299999      -2.69662709E-10
   16.4449997      -2.72796702E-10
   16.5599995      -2.69148426E-10
   16.6749992      -2.58585930E-10
   16.7900009      -2.41248577E-10
   16.9050007      -2.17550006E-10
   17.0200005      -1.88168342E-10
   17.1350002      -1.54024196E-10
   17.2500000      -1.16247172E-10
   17.3649998      -7.61331276E-11
   17.4799995      -3.50935288E-11
   17.5949993       5.39955884E-12
   17.7099991       4.38705357E-11
   17.8250008       7.88964102E-11
   17.9400005       1.09158994E-10
   18.0550003       1.33490607E-10
   18.1700001       1.50911394E-10
   18.2849998       1.60656266E-10
   18.3999996       1.62190816E-10
   18.5149994       1.55215674E-10
   18.6299992       1.39660006E-10
   18.7450008       1.15664804E-10
   18.8600006       8.35574665E-11
   18.9750004       4.38195868E-11
   19.0900002      -2.95055430E-12
   19.2049999      -5.60783538E-11
   19.3199997      -1.14855091E-10
   19.4349995      -1.78579831E-10
   19.5499992      -2.46600518E-10
   19.6650009      -3.18352511E-10
   19.7800007      -3.93396121E-10
   19.8950005      -4.71449380E-10
   20.0100002      -5.52419277E-10
   20.1250000      -6.36428132E-10
   20.2399998      -7.23836546E-10
   20.3549995      -8.15260637E-10
   20.4699993      -9.11583364E-10
   20.5849991      -1.01395736E-09
   20.7000008      -1.12380105E-09
   20.8150005      -1.24278232E-09
   20.9300003      -1.37279343E-09
   21.0450001      -1.51591339E-09
   21.1599998      -1.67435965E-09
   21.2749996      -1.85043159E-09
   21.3899994      -2.04644413E-09
   21.5049992      -2.26465735E-09
   21.6200008      -2.50720578E-09
   21.7350006      -2.77602474E-09
   21.8500004      -3.07278669E-09
   21.9650002      -3.39884232E-09
   22.0799999      -3.75517306E-09
   22.1949997      -4.14235579E-09
   22.3099995      -4.56054261E-09
   22.4249992      -5.00944930E-09
   22.5400009      -5.48836043E-09
   22.6550007      -5.99614358E-09
   22.7700005      -6.53127064E-09
   22.8850002      -7.09184045E-09
   23.0000000      -7.67561392E-09
   23.1149998      -8.28003976E-09
   23.2299995      -8.90228424E-09
   23.3449993      -9.53925827E-09
   23.4599991      -1.01876374E-08
   23.5750008      -1.08438876E-08
   23.6900005      -1.15042731E-08
   23.8050003      -1.21648931E-08
   23.9200001      -1.28216895E-08
   24.0349998      -1.34704745E-08
   24.1499996      -1.41069574E-08
   24.2649994      -1.47267869E-08
   24.3799992      -1.53255879E-08
   24.4950008      -1.58990154E-08
   24.6100006      -1.64428062E-08
   24.7250004      -1.69528427E-08
   24.8400002      -1.74252275E-08
   24.9549999      -1.78563333E-08
   25.0699997      -1.82428916E-08
   25.1849995      -1.85820372E-08
   25.2999992      -1.88713809E-08
   25.4150009      -1.91090574E-08
   25.5300007      -1.92937701E-08
   25.6450005      -1.94248155E-08
   25.7600002      -1.95021137E-08
   25.8750000      -1.95262135E-08
   25.9899998      -1.94982874E-08
   26.1049995      -1.94201242E-08
   26.2199993      -1.92941023E-08
   26.3349991      -1.91231653E-08
   26.4500008      -1.89107681E-08
   26.5650005      -1.86608506E-08
   26.6800003      -1.83777633E-08
   26.7950001      -1.80662223E-08
   26.9099998      -1.77312298E-08
   27.0249996      -1.73780066E-08
   27.1399994      -1.70118977E-08
   27.2549992      -1.66382872E-08
   27.3700008      -1.62624847E-08
   27.4850006      -1.58896185E-08
   27.6000004      -1.55245079E-08
   27.7150002      -1.51715494E-08
   27.8299999      -1.48345674E-08
   27.9449997      -1.45167025E-08
   28.0599995      -1.42202747E-08
   28.1749992      -1.39466758E-08
   28.2900009      -1.36962646E-08
   28.4050007      -1.34682843E-08
   28.5200005      -1.32607987E-08
   28.6350002      -1.30706539E-08
   28.7500000      -1.28934641E-08
   28.8649998      -1.27236142E-08
   28.9799995      -1.25542954E-08
   29.0949993      -1.23775488E-08
   29.2099991      -1.21843309E-08
   29.3250008      -1.19645911E-08
   29.4400005      -1.17073498E-08
   29.5550003      -1.14007772E-08
   29.6700001      -1.10322897E-08
   29.7849998      -1.05886127E-08
   29.8999996      -1.00558761E-08
   30.0149994      -9.41967127E-09
   30.1299992      -8.66511307E-09
   30.2450008      -7.77689468E-09
   30.3600006      -6.73934952E-09
   30.4750004      -5.53651880E-09
   30.5900002      -4.15217860E-09
   30.7049999      -2.56992849E-09
   30.8199997      -7.73224651E-10
   30.9349995       1.25452004E-09
   31.0499992       3.52987173E-09
   31.1650009       6.06931216E-09
   31.2800007       8.88912233E-09
   31.3950005       1.20053176E-08
   31.5100002       1.54335531E-08
   31.6250000       1.91890432E-08
   31.7399998       2.32864767E-08
   31.8549995       2.77399490E-08
   31.9699993       3.25629230E-08
   32.0849991       3.77681566E-08
   32.2000008       4.33676668E-08
   32.3149986       4.93727192E-08
   32.4300003       5.57937483E-08
   32.5449982       6.26404244E-08
   32.6599998       6.99215690E-08
   32.7750015       7.76451188E-08
   32.8899994       8.58181934E-08
   33.0050011       9.44469392E-08
   33.1199989       1.03536586E-07
   33.2350006       1.13091374E-07
   33.3499985       1.23114475E-07
   33.4650002       1.33607998E-07
   33.5800018       1.44572951E-07
   33.6949997       1.56009122E-07
   33.8100014       1.67915246E-07
   33.9249992       1.80288822E-07
   34.0400009       1.93126240E-07
   34.1549988       2.06422925E-07
   34.2700005       2.20173177E-07
   34.3849983       2.34370603E-07
   34.5000000       2.49007968E-07
   34.6150017       2.64077499E-07
   34.7299995       2.79571111E-07
   34.8450012       2.95480248E-07
   34.9599991       3.11796441E-07
   35.0750008       3.28510993E-07
   35.1899986       3.45615518E-07
   35.3050003       3.63101691E-07
   35.4199982       3.80961467E-07
   35.5349998       3.99187144E-07
   35.6500015       4.17771219E-07
   35.7649994       4.36706443E-07
   35.8800011       4.55985969E-07
   35.9949989       4.75602945E-07
   36.1100006       4.95550751E-07
   36.2249985       5.15822933E-07
   36.3400002       5.36412927E-07
   36.4550018       5.57314195E-07
   36.5699997       5.78520144E-07
   36.6850014       6.00024009E-07
   36.7999992       6.21819026E-07
   36.9150009       6.43898090E-07
   37.0299988       6.66253982E-07
   37.1450005       6.88879311E-07
   37.2599983       7.11766290E-07
   37.3750000       7.34907019E-07
   37.4900017       7.58293197E-07
   37.6049995       7.81916299E-07
   37.7200012       8.05767399E-07
   37.8349991       8.29837404E-07
   37.9500008       8.54116649E-07
   38.0649986       8.78595301E-07
   38.1800003       9.03262958E-07
   38.2949982       9.28108932E-07
   38.4099998       9.53122139E-07
   38.5250015       9.78290927E-07
   38.6399994       1.00360353E-06
   38.7550011       1.02904755E-06
   38.8699989       1.05461027E-06
   38.9850006       1.08027871E-06
   39.0999985       1.10603958E-06
   39.2150002       1.13187957E-06
   39.3300018       1.15778516E-06
   39.4449997       1.18374237E-06
   39.5600014       1.20973777E-06
   39.6749992       1.23575762E-06
   39.7900009       1.26178838E-06
   39.9049988       1.28781630E-06
   40.0200005       1.31382831E-06
   40.1349983       1.33981098E-06
   40.2500000       1.36575125E-06
   40.3650017       1.39163581E-06
   40.4799995       1.41745170E-06
   40.5950012       1.44318597E-06
   40.7099991       1.46882530E-06
   40.8250008       1.49435675E-06
   40.9399986       1.51976735E-06
   41.0550003       1.54504392E-06
   41.1699982       1.57017337E-06
   41.2849998       1.59514252E-06
   41.4000015       1.61993887E-06
   41.5149994       1.64454957E-06
   41.6300011       1.66896245E-06
   41.7449989       1.69316559E-06
   41.8600006       1.71714748E-06
   41.9749985       1.74089701E-06
   42.0900002       1.76440392E-06
   42.2050018       1.78765788E-06
   42.3199997       1.81064968E-06
   42.4350014       1.83337022E-06
   42.5499992       1.85581086E-06
   42.6650009       1.87796331E-06
   42.7799988       1.89981915E-06
   42.8950005       1.92137077E-06
   43.0099983       1.94260997E-06
   43.1250000       1.96352880E-06
   43.2400017       1.98411931E-06
   43.3549995       2.00437307E-06
   43.4700012       2.02428191E-06
   43.5849991       2.04383673E-06
   43.7000008       2.06302934E-06
   43.8149986       2.08184997E-06
   43.9300003       2.10028975E-06
   44.0449982       2.11833958E-06
   44.1599998       2.13598969E-06
   44.2750015       2.15323075E-06
   44.3899994       2.17005299E-06
   44.5050011       2.18644709E-06
   44.6199989       2.20240304E-06
   44.7350006       2.21791106E-06
   44.8499985       2.23296115E-06
   44.9650002       2.24754353E-06
   45.0800018       2.26164752E-06
   45.1949997       2.27526266E-06
   45.3100014       2.28837848E-06
   45.4249992       2.30098340E-06
   45.5400009       2.31306603E-06
   45.6549988       2.32461480E-06
   45.7700005       2.33561718E-06
   45.8849983       2.34606046E-06
   46.0000000       2.35593234E-06
   46.1150017       2.36521942E-06
   46.2299995       2.37390850E-06
   46.3450012       2.38198618E-06
   46.4599991       2.38943926E-06
   46.5750008       2.39625388E-06
   46.6899986       2.40241707E-06
   46.8050003       2.40791564E-06
   46.9199982       2.41273710E-06
   47.0349998       2.41686917E-06
   47.1500015       2.42030023E-06
   47.2649994       2.42301917E-06
   47.3800011       2.42501619E-06
   47.4949989       2.42628175E-06
   47.6100006       2.42680699E-06
   47.7249985       2.42658462E-06
   47.8400002       2.42560736E-06
   47.9550018       2.42386932E-06
   48.0699997       2.42136457E-06
   48.1850014       2.41808880E-06
   48.2999992       2.41403768E-06
   48.4150009       2.40920758E-06
   48.5299988       2.40359509E-06
   48.6450005       2.39719770E-06
   48.7599983       2.39001292E-06
   48.8750000       2.38203756E-06
   48.9900017       2.37327004E-06
   49.1049995       2.36370693E-06
   49.2200012       2.35334596E-06
   49.3349991       2.34218419E-06
   49.4500008       2.33021819E-06
   49.5649986       2.31744457E-06
   49.6800003       2.30385922E-06
   49.7949982       2.28945783E-06
   49.9099998       2.27423629E-06
   50.0250015       2.25818962E-06
   50.1399994       2.24131350E-06
   50.2550011       2.22360313E-06
   50.3699989       2.20505353E-06
   50.4850006       2.18566015E-06
   50.5999985       2.16541889E-06
   50.7150002       2.14432589E-06
   50.8300018       2.12237796E-06
   50.9449997       2.09957216E-06
   51.0600014       2.07590665E-06
   51.1749992       2.05137917E-06
   51.2900009       2.02598926E-06
   51.4049988       1.99973670E-06
   51.5200005       1.97262170E-06
   51.6349983       1.94464542E-06
   51.7500000       1.91580943E-06
   51.8650017       1.88611614E-06
   51.9799995       1.85556837E-06
   52.0950012       1.82416954E-06
   52.2099991       1.79192364E-06
   52.3250008       1.75883520E-06
   52.4399986       1.72490957E-06
   52.5550003       1.69015232E-06
   52.6699982       1.65456970E-06
   52.7849998       1.61816831E-06
   52.9000015       1.58095554E-06
   53.0149994       1.54293878E-06
   53.1300011       1.50412632E-06
   53.2449989       1.46452601E-06
   53.3600006       1.42414638E-06
   53.4749985       1.38299606E-06
   53.5900002       1.34108370E-06
   53.7050018       1.29841760E-06
   53.8199997       1.25500640E-06
   53.9350014       1.21085861E-06
   54.0499992       1.16598210E-06
   54.1650009       1.12038515E-06
   54.2799988       1.07407550E-06
   54.3950005       1.02706110E-06
   54.5099983       9.79349466E-07
   54.6250000       9.30949170E-07
   54.7400017       8.81867891E-07
   54.8549995       8.32114324E-07
   54.9700012       7.81696883E-07
   55.0849991       7.30625345E-07
   55.2000008       6.78909430E-07
   55.3149986       6.26559768E-07
   55.4300003       5.73587727E-07
   55.5449982       5.20004960E-07
   55.6599998       4.65824399E-07
   55.7750015       4.11059006E-07
   55.8899994       3.55722875E-07
   56.0050011       2.99830276E-07
   56.1199989       2.43395931E-07
   56.2350006       1.86434889E-07
   56.3499985       1.28962427E-07
   56.4650002       7.09940409E-08
   56.5800018       1.25453692E-08
   56.6949997      -4.63682106E-08
   56.8100014      -1.05731004E-07
   56.9249992      -1.65527567E-07
   57.0400009      -2.25742781E-07
   57.1549988      -2.86361058E-07
   57.2700005      -3.47367433E-07
   57.3849983      -4.08746615E-07
   57.5000000      -4.70483315E-07
   57.6150017      -5.32562581E-07
   57.7299995      -5.94968981E-07
   57.8450012      -6.57687394E-07
   57.9599991      -7.20702531E-07
   58.0750008      -7.83998530E-07
   58.1899986      -8.47560045E-07
   58.3050003      -9.11371330E-07
   58.4199982      -9.75416583E-07
   58.5349998      -1.03967977E-06
   58.6500015      -1.10414499E-06
   58.7649994      -1.16879619E-06
   58.8800011      -1.23361724E-06
   58.9949989      -1.29859166E-06
   59.1100006      -1.36370340E-06
   59.2249985      -1.42893566E-06
   59.3400002      -1.49427183E-06
   59.4550018      -1.55969508E-06
   59.5699997      -1.62518779E-06
   59.6850014      -1.69073269E-06
   59.7999992      -1.75631169E-06
   59.9150009      -1.82190706E-06
   60.0299988      -1.88749993E-06
   60.1450005      -1.95307166E-06
   60.2599983      -2.01860280E-06
   60.3750000      -2.08407482E-06
   60.4900017      -2.14946749E-06
   60.6049995      -2.21476239E-06
   60.7200012      -2.27993974E-06
   60.8349991      -2.34498043E-06
   60.9500008      -2.40986492E-06
   61.0649986      -2.47457410E-06
   61.1800003      -2.53908934E-06
   61.2949982      -2.60339152E-06
   61.4099998      -2.66746133E-06
   61.5250015      -2.73128012E-06
   61.6399994      -2.79482879E-06
   61.7550011      -2.85808846E-06
   61.8699989      -2.92103937E-06
   61.9850006      -2.98366240E-06
   62.0999985      -3.04593755E-06
   62.2150002      -3.10784549E-06
   62.3300018      -3.16936553E-06
   62.4449997      -3.23047766E-06
   62.5600014      -3.29116142E-06
   62.6749992      -3.35139589E-06
   62.7900009      -3.41116061E-06
   62.9049988      -3.47043419E-06
   63.0200005      -3.52919596E-06
   63.1349983      -3.58742454E-06
   63.2500000      -3.64509924E-06
   63.3650017      -3.70219891E-06
   63.4799995      -3.75870286E-06
   63.5950012      -3.81458995E-06
   63.7099991      -3.86984038E-06
   63.8250008      -3.92443326E-06
   63.9399986      -3.97834947E-06
   64.0550003      -4.03156901E-06
   64.1699982      -4.08407368E-06
   64.2850037      -4.13584348E-06
   64.4000015      -4.18686022E-06
   64.5149994      -4.23710571E-06
   64.6299973      -4.28656222E-06
   64.7450027      -4.33521154E-06
   64.8600006      -4.38303732E-06
   64.9749985      -4.43002227E-06
   65.0899963      -4.47614957E-06
   65.2050018      -4.52140375E-06
   65.3199997      -4.56576890E-06
   65.4349976      -4.60922911E-06
   65.5500031      -4.65176981E-06
   65.6650009      -4.69337647E-06
   65.7799988      -4.73403452E-06
   65.8949966      -4.77373032E-06
   66.0100021      -4.81245024E-06
   66.1250000      -4.85018063E-06
   66.2399979      -4.88690875E-06
   66.3550034      -4.92262097E-06
   66.4700012      -4.95730410E-06
   66.5849991      -4.99094540E-06
   66.6999969      -5.02353214E-06
   66.8150024      -5.05505022E-06
   66.9300003      -5.08548646E-06
   67.0449982      -5.11482813E-06
   67.1600037      -5.14306112E-06
   67.2750015      -5.17017179E-06
   67.3899994      -5.19614650E-06
   67.5049973      -5.22097162E-06
   67.6200027      -5.24463303E-06
   67.7350006      -5.26711756E-06
   67.8499985      -5.28841156E-06
   67.9649963      -5.30850184E-06
   68.0800018      -5.32737567E-06
   68.1949997      -5.34502078E-06
   68.3099976      -5.36142443E-06
   68.4250031      -5.37657570E-06
   68.5400009      -5.39046368E-06
   68.6549988      -5.40307883E-06
   68.7699966      -5.41441204E-06
   68.8850021      -5.42445605E-06
   69.0000000      -5.43320357E-06
   69.1149979      -5.44064915E-06
   69.2300034      -5.44678869E-06
   69.3450012      -5.45161856E-06
   69.4599991      -5.45513694E-06
   69.5749969      -5.45734247E-06
   69.6900024      -5.45823468E-06
   69.8050003      -5.45781359E-06
   69.9199982      -5.45608100E-06
   70.0350037      -5.45303692E-06
   70.1500015      -5.44868317E-06
   70.2649994      -5.44302156E-06
   70.3799973      -5.43605211E-06
   70.4950027      -5.42777661E-06
   70.6100006      -5.41819463E-06
   70.7249985      -5.40730662E-06
   70.8399963      -5.39511120E-06
   70.9550018      -5.38160793E-06
   71.0699997      -5.36679408E-06
   71.1849976      -5.35066874E-06
   71.3000031      -5.33322873E-06
   71.4150009      -5.31447222E-06
   71.5299988      -5.29439558E-06
   71.6449966      -5.27299699E-06
   71.7600021      -5.25027372E-06
   71.8750000      -5.22622395E-06
   71.9899979      -5.20084586E-06
   72.1050034      -5.17413764E-06
   72.2200012      -5.14609928E-06
   72.3349991      -5.11672988E-06
   72.4499969      -5.08602943E-06
   72.5650024      -5.05399976E-06
   72.6800003      -5.02064131E-06
   72.7949982      -4.98595591E-06
   72.9100037      -4.94994720E-06
   73.0250015      -4.91261699E-06
   73.1399994      -4.87396937E-06
   73.2549973      -4.83400981E-06
   73.3700027      -4.79274331E-06
   73.4850006      -4.75017578E-06
   73.5999985      -4.70631448E-06
   73.7149963      -4.66116762E-06
   73.8300018      -4.61474474E-06
   73.9449997      -4.56705493E-06
   74.0599976      -4.51811002E-06
   74.1750031      -4.46792183E-06
   74.2900009      -4.41650354E-06
   74.4049988      -4.36386836E-06
   74.5199966      -4.31003173E-06
   74.6350021      -4.25500775E-06
   74.7500000      -4.19881280E-06
   74.8649979      -4.14146143E-06
   74.9800034      -4.08297046E-06
   75.0950012      -4.02335581E-06
   75.2099991      -3.96263340E-06
   75.3249969      -3.90081914E-06
   75.4400024      -3.83792894E-06
   75.5550003      -3.77397896E-06
   75.6699982      -3.70898510E-06
   75.7850037      -3.64296352E-06
   75.9000015      -3.57592990E-06
   76.0149994      -3.50790060E-06
   76.1299973      -3.43889201E-06
   76.2450027      -3.36892094E-06
   76.3600006      -3.29800400E-06
   76.4749985      -3.22615847E-06
   76.5899963      -3.15340185E-06
   76.7050018      -3.07975188E-06
   76.8199997      -3.00522652E-06
   76.9349976      -2.92984396E-06
   77.0500031      -2.85362307E-06
   77.1650009      -2.77658296E-06
   77.2799988      -2.69874249E-06
   77.3949966      -2.62012122E-06
   77.5100021      -2.54073871E-06
   77.6250000      -2.46061495E-06
   77.7399979      -2.37976997E-06
   77.8550034      -2.29822376E-06
   77.9700012      -2.21599703E-06
   78.0849991      -2.13311023E-06
   78.1999969      -2.04958428E-06
   78.3150024      -1.96543988E-06
   78.4300003      -1.88069862E-06
   78.5449982      -1.79538142E-06
   78.6600037      -1.70951023E-06
   78.7750015      -1.62310653E-06
   78.8899994      -1.53619192E-06
   79.0049973      -1.44878868E-06
   79.1200027      -1.36091865E-06
   79.2350006      -1.27260444E-06
   79.3499985      -1.18386811E-06
   79.4649963      -1.09473183E-06
   79.5800018      -1.00521822E-06
   79.6949997      -9.15349517E-07
   79.8099976      -8.25148049E-07
   79.9250031      -7.34636785E-07
   80.0400009      -6.43838234E-07
   80.1549988      -5.52775134E-07
   80.2699966      -4.61470478E-07
   80.3850021      -3.69947259E-07
   80.5000000      -2.78228782E-07
   80.6149979      -1.86338212E-07
   80.7300034      -9.42992742E-08
   80.8450012      -2.13615703E-09
   80.9599991       9.01271306E-08
   81.0749969       1.82465939E-07
   81.1900024       2.74855381E-07
   81.3050003       3.67270928E-07
   81.4199982       4.59686902E-07
   81.5350037       5.52077438E-07
   81.6500015       6.44416957E-07
   81.7649994       7.36678828E-07
   81.8799973       8.28837244E-07
   81.9950027       9.20864863E-07
   82.1100006       1.01273463E-06
   82.2249985       1.10441920E-06
   82.3399963       1.19589060E-06
   82.4550018       1.28712099E-06
   82.5699997       1.37808229E-06
   82.6849976       1.46874595E-06
   82.8000031       1.55908458E-06
   82.9150009       1.64906987E-06
   83.0299988       1.73867397E-06
   83.1449966       1.82787016E-06
   83.2600021       1.91663116E-06
   83.3750000       2.00493150E-06
   83.4899979       2.09274481E-06
   83.6050034       2.18004629E-06
   83.7200012       2.26681186E-06
   83.8349991       2.35301763E-06
   83.9499969       2.43864088E-06
   84.0650024       2.52365862E-06
   84.1800003       2.60804927E-06
   84.2949982       2.69179168E-06
   84.4100037       2.77486424E-06
   84.5250015       2.85724695E-06
   84.6399994       2.93891935E-06
   84.7549973       3.01986142E-06
   84.8700027       3.10005316E-06
   84.9850006       3.17947524E-06
   85.0999985       3.25810811E-06
   85.2149963       3.33593312E-06
   85.3300018       3.41293139E-06
   85.4449997       3.48908407E-06
   85.5599976       3.56437204E-06
   85.6750031       3.63877757E-06
   85.7900009       3.71228111E-06
   85.9049988       3.78486448E-06
   86.0199966       3.85650901E-06
   86.1350021       3.92719585E-06
   86.2500000       3.99690543E-06
   86.3649979       4.06561958E-06
   86.4800034       4.13331873E-06
   86.5950012       4.19998332E-06
   86.7099991       4.26559473E-06
   86.8249969       4.33013383E-06
   86.9400024       4.39358109E-06
   87.0550003       4.45591786E-06
   87.1699982       4.51712503E-06
   87.2850037       4.57718352E-06
   87.4000015       4.63607557E-06
   87.5149994       4.69378256E-06
   87.6299973       4.75028537E-06
   87.7450027       4.80556719E-06
   87.8600006       4.85960982E-06
   87.9749985       4.91239507E-06
   88.0899963       4.96390658E-06
   88.2050018       5.01412751E-06
   88.3199997       5.06304150E-06
   88.4349976       5.11063354E-06
   88.5500031       5.15688771E-06
   88.6650009       5.20178901E-06
   88.7799988       5.24532334E-06
   88.8949966       5.28747705E-06
   89.0100021       5.32823651E-06
   89.1250000       5.36758807E-06
   89.2399979       5.40551946E-06
   89.3550034       5.44201794E-06
   89.4700012       5.47707168E-06
   89.5849991       5.51066933E-06
   89.6999969       5.54279814E-06
   89.8150024       5.57344811E-06
   89.9300003       5.60260742E-06
   90.0449982       5.63026651E-06
   90.1600037       5.65641585E-06
   90.2750015       5.68104633E-06
   90.3899994       5.70415068E-06
   90.5049973       5.72572162E-06
   90.6200027       5.74575279E-06
   90.7350006       5.76424009E-06
   90.8499985       5.78117761E-06
   90.9649963       5.79656262E-06
   91.0800018       5.81039194E-06
   91.1949997       5.82266330E-06
   91.3099976       5.83337351E-06
   91.4250031       5.84252211E-06
   91.5400009       5.85010548E-06
   91.6549988       5.85612315E-06
   91.7699966       5.86057286E-06
   91.8850021       5.86345323E-06
   92.0000000       5.86476290E-06
   92.1149979       5.86450187E-06
   92.2300034       5.86266924E-06
   92.3450012       5.85926455E-06
   92.4599991       5.85428870E-06
   92.5749969       5.84774307E-06
   92.6900024       5.83962992E-06
   92.8050003       5.82995062E-06
   92.9199982       5.81870881E-06
   93.0350037       5.80590859E-06
   93.1500015       5.79155403E-06
   93.2649994       5.77565015E-06
   93.3799973       5.75820286E-06
   93.4950027       5.73921761E-06
   93.6100006       5.71870078E-06
   93.7249985       5.69665963E-06
   93.8399963       5.67310190E-06
   93.9550018       5.64803486E-06
   94.0699997       5.62146670E-06
   94.1849976       5.59340651E-06
   94.3000031       5.56386340E-06
   94.4150009       5.53284599E-06
   94.5299988       5.50036521E-06
   94.6449966       5.46642968E-06
   94.7600021       5.43105079E-06
   94.8750000       5.39423900E-06
   94.9899979       5.35600520E-06
   95.1050034       5.31636124E-06
   95.2200012       5.27531802E-06
   95.3349991       5.23288918E-06
   95.4499969       5.18908655E-06
   95.5650024       5.14392423E-06
   95.6800003       5.09741540E-06
   95.7949982       5.04957552E-06
   95.9100037       5.00041915E-06
   96.0250015       4.94996175E-06
   96.1399994       4.89821969E-06
   96.2549973       4.84520979E-06
   96.3700027       4.79094933E-06
   96.4850006       4.73545515E-06
   96.5999985       4.67874452E-06
   96.7149963       4.62083563E-06
   96.8300018       4.56174530E-06
   96.9449997       4.50149219E-06
   97.0599976       4.44009356E-06
   97.1750031       4.37756762E-06
   97.2900009       4.31393255E-06
   97.4049988       4.24920609E-06
   97.5199966       4.18340778E-06
   97.6350021       4.11655537E-06
   97.7500000       4.04866887E-06
   97.8649979       3.97976783E-06
   97.9800034       3.90987179E-06
   98.0950012       3.83900124E-06
   98.2099991       3.76717526E-06
   98.3249969       3.69441500E-06
   98.4400024       3.62074070E-06