   0.00000000       0.00000000    
  0.115000002       0.00000000    
  0.230000004       0.00000000    
  0.344999999       0.00000000    
  0.460000008       0.00000000    
  0.574999988       0.00000000    
  0.689999998       0.00000000    
  0.805000007       0.00000000    
  0.920000017       0.00000000    
   1.03499997       0.00000000    
   1.14999998       0.00000000    
   1.26499999       0.00000000    
   1.38000000       0.00000000    
   1.49500000       0.00000000    
   1.61000001       0.00000000    
   1.72500002       0.00000000    
   1.84000003       0.00000000    
   1.95500004       0.00000000    
   2.06999993       0.00000000    
   2.18499994       0.00000000    
   2.29999995       0.00000000    
   2.41499996       0.00000000    
   2.52999997       0.00000000    
   2.64499998       0.00000000    
   2.75999999       0.00000000    
   2.87500000       0.00000000    
   2.99000001       0.00000000    
   3.10500002       0.00000000    
   3.22000003       0.00000000    
   3.33500004       0.00000000    
   3.45000005       0.00000000    
   3.56500006       0.00000000    
   3.68000007       0.00000000    
   3.79500008       0.00000000    
   3.91000009       0.00000000    
   4.02500010       0.00000000    
   4.13999987       0.00000000    
   4.25500011       0.00000000    
   4.36999989       0.00000000    
   4.48500013       0.00000000    
   4.59999990       0.00000000    
   4.71500015       0.00000000    
   4.82999992       0.00000000    
   4.94500017       0.00000000    
   5.05999994       0.00000000    
   5.17500019       0.00000000    
   5.28999996       0.00000000    
   5.40500021       0.00000000    
   5.51999998       0.00000000    
   5.63500023       0.00000000    
   5.75000000       0.00000000    
   5.86499977       0.00000000    
   5.98000002       0.00000000    
   6.09499979       0.00000000    
   6.21000004       0.00000000    
   6.32499981       0.00000000    
   6.44000006       0.00000000    
   6.55499983       0.00000000    
   6.67000008       0.00000000    
   6.78499985       0.00000000    
   6.90000010       0.00000000    
   7.01499987       0.00000000    
   7.13000011       0.00000000    
   7.24499989       0.00000000    
   7.36000013       0.00000000    
   7.47499990       0.00000000    
   7.59000015       0.00000000    
   7.70499992       0.00000000    
   7.82000017       0.00000000    
   7.93499994       0.00000000    
   8.05000019       0.00000000    
   8.16499996       0.00000000    
   8.27999973       0.00000000    
   8.39500046       0.00000000    
   8.51000023       0.00000000    
   8.62500000       0.00000000    
   8.73999977       0.00000000    
   8.85499954       0.00000000    
   8.97000027       0.00000000    
   9.08500004       0.00000000    
   9.19999981       0.00000000    
   9.31499958       0.00000000    
   9.43000031       0.00000000    
   9.54500008       0.00000000    
   9.65999985       0.00000000    
   9.77499962       0.00000000    
   9.89000034       0.00000000    
   10.0050001      -6.38473619E-41
   10.1199999      -1.25414811E-40
   10.2349997      -1.86982261E-40
   10.3500004      -2.48549710E-40
   10.4650002      -3.10115758E-40
   10.5799999      -3.71683207E-40
   10.6949997      -4.33250657E-40
   10.8100004      -4.94818106E-40
   10.9250002      -5.56385555E-40
   11.0400000      -6.17951603E-40
   11.1549997      -5.74458102E-40
   11.2700005      -4.68671278E-40
   11.3850002      -3.65164367E-40
   11.5000000      -2.61657456E-40
   11.6149998      -1.58149143E-40
   11.7299995       3.72040538E-40
   11.8450003       1.09754460E-39
   11.9600000       2.06851832E-39
   12.0749998       3.06340940E-39
   12.1899996       4.00193605E-39
   12.3050003       4.86716078E-39
   12.4200001       5.60328669E-39
   12.5349998       6.22558512E-39
   12.6499996       6.97827017E-39
   12.7650003       7.96497066E-39
   12.8800001       9.77318238E-39
   12.9949999       1.19466425E-38
   13.1099997       1.39123252E-38
   13.2250004       1.49319660E-38
   13.3400002       1.49443479E-38
   13.4549999       1.41152570E-38
   13.5699997       1.35009698E-38
   13.6850004       1.14656707E-38
   13.8000002      -2.06254837E-38
   13.9150000      -5.69889420E-38
   14.0299997      -9.27206235E-38
   14.1450005      -9.87594800E-38
   14.2600002      -1.05317714E-37
   14.3750000      -1.11605822E-37
   14.4899998      -1.13985664E-37
   14.6049995      -9.17352192E-38
   14.7200003      -5.15982029E-38
   14.8350000       6.05780625E-39
   14.9499998       6.88399025E-38
   15.0649996       1.31820046E-37
   15.1800003       1.80916331E-37
   15.2950001       2.06325729E-37
   15.4099998       1.10102487E-37
   15.5249996      -1.05157178E-38
   15.6400003      -1.82441885E-37
   15.7550001      -2.62818773E-37
   15.8699999      -3.15545599E-37
   15.9849997      -2.94245436E-38
   16.1000004       3.08223893E-37
   16.2150002       9.63005398E-37
   16.3299999       1.58961594E-36
   16.4449997       2.27174131E-36
   16.5599995       2.85510746E-36
   16.6749992       3.07479447E-36
   16.7900009       3.08808766E-36
   16.9050007       3.16587196E-36
   17.0200005       3.11489681E-36
   17.1350002       2.99896490E-36
   17.2500000       2.77054042E-36
   17.3649998       2.30916391E-36
   17.4799995       1.57485769E-36
   17.5949993       1.44814724E-37
   17.7099991      -1.98536451E-36
   17.8250008      -5.77105988E-36
   17.9400005      -1.06950894E-35
   18.0550003      -1.61048078E-35
   18.1700001      -2.13892232E-35
   18.2849998      -2.53068580E-35
   18.3999996      -2.82019978E-35
   18.5149994      -3.07341263E-35
   18.6299992      -3.27133822E-35
   18.7450008      -3.34608054E-35
   18.8600006      -3.18550589E-35
   18.9750004      -2.82530584E-35
   19.0900002      -2.25400583E-35
   19.2049999      -1.35660830E-35
   19.3199997      -2.20809321E-36
   19.4349995       1.29124223E-35
   19.5499992       3.20948098E-35
   19.6650009       5.64846904E-35
   19.7800007       8.58511107E-35
   19.8950005       1.17762838E-34
   20.0100002       1.49678462E-34
   20.1250000       1.79791046E-34
   20.2399998       2.05454303E-34
   20.3549995       2.22812452E-34
   20.4699993       2.29693571E-34
   20.5849991       2.23081185E-34
   20.7000008       1.99160702E-34
   20.8150005       1.56559248E-34
   20.9300003       9.45171156E-35
   21.0450001       1.48207625E-35
   21.1599998      -8.31762067E-35
   21.2749996      -1.94749544E-34
   21.3899994      -3.13386702E-34
   21.5049992      -4.32217380E-34
   21.6200008      -5.43489033E-34
   21.7350006      -6.38721661E-34
   21.8500004      -7.08810925E-34
   21.9650002      -7.45525563E-34
   22.0799999      -7.42527869E-34
   22.1949997      -6.93405108E-34
   22.3099995      -5.97071050E-34
   22.4249992      -4.53404334E-34
   22.5400009      -2.66446871E-34
   22.6550007      -4.18963176E-35
   22.7700005       2.13780155E-34
   22.8850002       4.91030898E-34
   23.0000000       7.82498304E-34
   23.1149998       1.08502619E-33
   23.2299995       1.39968353E-33
   23.3449993       1.73384572E-33
   23.4599991       2.10286425E-33
   23.5750008       2.52843215E-33
   23.6900005       3.04114421E-33
   23.8050003       3.67405976E-33
   23.9200001       4.46283961E-33
   24.0349998       5.43533270E-33
   24.1499996       6.60249022E-33
   24.2649994       7.95135750E-33
   24.3799992       9.42991633E-33
   24.4950008       1.09380256E-32
   24.6100006       1.23153994E-32
   24.7250004       1.33343539E-32
   24.8400002       1.36913545E-32
   24.9549999       1.30081248E-32
   25.0699997       1.08394046E-32
   25.1849995       6.68633236E-33
   25.2999992       2.80489339E-35
   25.4150009      -9.64523384E-33
   25.5300007      -2.27816007E-32
   25.6450005      -3.97070648E-32
   25.7600002      -6.05546158E-32
   25.8750000      -8.51900916E-32
   25.9899998      -1.13133973E-31
   26.1049995      -1.43483262E-31
   26.2199993      -1.74847179E-31
   26.3349991      -2.05295104E-31
   26.4500008      -2.32328489E-31
   26.5650005      -2.52895714E-31
   26.6800003      -2.63434303E-31
   26.7950001      -2.59971766E-31
   26.9099998      -2.38273598E-31
   27.0249996      -1.94055721E-31
   27.1399994      -1.23251229E-31
   27.2549992      -2.23342428E-32
   27.3700008       1.11306420E-31
   27.4850006       2.78959644E-31
   27.6000004       4.80159726E-31
   27.7150002       7.12254785E-31
   27.8299999       9.70007876E-31
   27.9449997       1.24524715E-30
   28.0599995       1.52661404E-30
   28.1749992       1.79943321E-30
   28.2900009       2.04575288E-30
   28.4050007       2.24457994E-30
   28.5200005       2.37234922E-30
   28.6350002       2.40364483E-30
   28.7500000       2.31219814E-30
   28.8649998       2.07215674E-30
   28.9799995       1.65961540E-30
   29.0949993       1.05438072E-30
   29.2099991       2.41911142E-31
   29.3250008      -7.84637683E-31
   29.4400005      -2.02235076E-30
   29.5550003      -3.45662070E-30
   29.6700001      -5.05944241E-30
   29.7849998      -6.78812817E-30
   29.8999996      -8.58457920E-30
   30.0149994      -1.03752916E-29
   30.1299992      -1.20722292E-29
   30.2450008      -1.35747126E-29
   30.3600006      -1.47723702E-29
   30.4750004      -1.55492452E-29
   30.5900002      -1.57889407E-29
   30.7049999      -1.53807323E-29
   30.8199997      -1.42264036E-29
   30.9349995      -1.22474986E-29
   31.0499992      -9.39254217E-30
   31.1650009      -5.64375677E-30
   31.2800007      -1.02264792E-30
   31.3950005       4.40612899E-30
   31.5100002       1.05332772E-29
   31.6250000       1.72062807E-29
   31.7399998       2.42342594E-29
   31.8549995       3.13964979E-29
   31.9699993       3.84547092E-29
   32.0849991       4.51687327E-29
   32.2000008       5.13150432E-29
   32.3149986       5.67070512E-29
   32.4300003       6.12156171E-29
   32.5449982       6.47880125E-29
   32.6599998       6.74629607E-29
   32.7750015       6.93794114E-29
   32.8899994       7.07762523E-29
   33.0050011       7.19806687E-29
   33.1199989       7.33827156E-29
   33.2350006       7.53948189E-29
   33.3499985       7.83952071E-29
   33.4650002       8.26558757E-29
   33.5800018       8.82570517E-29
   33.6949997       9.49918843E-29
   33.8100014       1.02266290E-28
   33.9249992       1.09001965E-28
   34.0400009       1.13551289E-28
   34.1549988       1.13634585E-28
   34.2700005       1.06311814E-28
   34.3849983       8.80003915E-29
   34.5000000       5.45518513E-29
   34.6150017       1.39692006E-30
   34.7299995      -7.62320808E-29
   34.8450012      -1.82996820E-28
   34.9599991      -3.23066635E-28
   35.0750008      -4.99655609E-28
   35.1899986      -7.14496706E-28
   35.3050003      -9.67270774E-28
   35.4199982      -1.25501954E-27
   35.5349998      -1.57157636E-27
   35.6500015      -1.90705853E-27
   35.7649994      -2.24746510E-27
   35.8800011      -2.57443408E-27
   35.9949989      -2.86520983E-27
   36.1100006      -3.09286996E-27
   36.2249985      -3.22685614E-27
   36.3400002      -3.23384476E-27
   36.4550018      -3.07897477E-27
   36.5699997      -2.72743785E-27
   36.6850014      -2.14641695E-27
   36.7999992      -1.30732423E-27
   36.9150009      -1.88274301E-28
   37.0299988       1.22329668E-27
   37.1450005       2.92799457E-27
   37.2599983       4.91194797E-27
   37.3750000       7.14456993E-27
   37.4900017       9.57677216E-27
   37.6049995       1.21398097E-26
   37.7200012       1.47449227E-26
   37.8349991       1.72839332E-26
   37.9500008       1.96309284E-26
   38.0649986       2.16450999E-26
   38.1800003       2.31748044E-26
   38.2949982       2.40627767E-26
   38.4099998       2.41524634E-26
   38.5250015       2.32952644E-26
   38.6399994       2.13584475E-26
   38.7550011       1.82334891E-26
   38.8699989       1.38443764E-26
   38.9850006       8.15554834E-27
   39.0999985       1.17895705E-27
   39.2150002      -7.02017103E-27
   39.3300018      -1.63193520E-26
   39.4449997      -2.65369850E-26
   39.5600014      -3.74330462E-26
   39.6749992      -4.87124598E-26
   39.7900009      -6.00313042E-26
   39.9049988      -7.10058939E-26
   40.0200005      -8.12243913E-26
   40.1349983      -9.02606574E-26
   40.2500000      -9.76899029E-26
   40.3650017      -1.03105267E-25
   40.4799995      -1.06134690E-25
   40.5950012      -1.06457038E-25
   40.7099991      -1.03816696E-25
   40.8250008      -9.80354979E-26
   40.9399986      -8.90213138E-26
   41.0550003      -7.67724548E-26
   41.1699982      -6.13773042E-26
   41.2849998      -4.30091927E-26
   41.4000015      -2.19161645E-26
   41.5149994       1.59364810E-27
   41.6300011       2.71704373E-26
   41.7449989       5.44436606E-26
   41.8600006       8.30443428E-26
   41.9749985       1.12626411E-25
   42.0900002       1.42885883E-25
   42.2050018       1.73575099E-25
   42.3199997       2.04510513E-25
   42.4350014       2.35571911E-25
   42.5499992       2.66691809E-25
   42.6650009       2.97833720E-25
   42.7799988       3.28959287E-25
   42.8950005       3.59984447E-25
   43.0099983       3.90726233E-25
   43.1250000       4.20841910E-25
   43.2400017       4.49764509E-25
   43.3549995       4.76638141E-25
   43.4700012       5.00258460E-25
   43.5849991       5.19023193E-25
   43.7000008       5.30899642E-25
   43.8149986       5.33413939E-25
   43.9300003       5.23668351E-25
   44.0449982       4.98391374E-25
   44.1599998       4.54024703E-25
   44.2750015       3.86848636E-25
   44.3899994       2.93147097E-25
   44.5050011       1.69410135E-25
   44.6199989       1.25695849E-26
   44.7350006      -1.79738296E-25
   44.8499985      -4.08893700E-25
   44.9650002      -6.75008851E-25
   45.0800018      -9.76652202E-25
   45.1949997      -1.31059694E-24
   45.3100014      -1.67160967E-24
   45.4249992      -2.05229994E-24
   45.5400009      -2.44304030E-24
   45.6549988      -2.83197890E-24
   45.7700005      -3.20515192E-24
   45.8849983      -3.54670956E-24
   46.0000000      -3.83925389E-24
   46.1150017      -4.06429500E-24
   46.2299995      -4.20281424E-24
   46.3450012      -4.23592708E-24
   46.4599991      -4.14562262E-24
   46.5750008      -3.91556159E-24
   46.6899986      -3.53189909E-24
   46.8050003      -2.98410461E-24
   46.9199982      -2.26573592E-24
   47.0349998      -1.37513878E-24
   47.1500015      -3.16032593E-25
   47.2649994       9.02057120E-25
   47.3800011       2.26354170E-24
   47.4949989       3.74671380E-24
   47.6100006       5.32391063E-24
   47.7249985       6.96190338E-24
   47.8400002       8.62250371E-24
   47.9550018       1.02633770E-23
   48.0699997       1.18390367E-23
   48.1850014       1.33019856E-23
   48.2999992       1.46039626E-23
   48.4150009       1.56972276E-23
   48.5299988       1.65358704E-23
   48.6450005       1.70770432E-23
   48.7599983       1.72820918E-23
   48.8750000       1.71175464E-23
   48.9900017       1.65558964E-23
   49.1049995       1.55761816E-23
   49.2200012       1.41643194E-23
   49.3349991       1.23132470E-23
   49.4500008       1.00228399E-23
   49.5649986       7.29968494E-24
   49.6800003       4.15673925E-24
   49.7949982       6.12944430E-25
   49.9099998      -3.30711436E-24
   50.0250015      -7.57346701E-24
   50.1399994      -1.21508001E-23
   50.2550011      -1.69983006E-23
   50.3699989      -2.20691648E-23
   50.4850006      -2.73098218E-23
   50.5999985      -3.26588320E-23
   50.7150002      -3.80455056E-23
   50.8300018      -4.33883469E-23
   50.9449997      -4.85933616E-23
   51.0600014      -5.35524536E-23
   51.1749992      -5.81420338E-23
   51.2900009      -6.22220224E-23
   51.4049988      -6.56355687E-23
   51.5200005      -6.82095524E-23
   51.6349983      -6.97562246E-23
   51.7500000      -7.00760478E-23
   51.8650017      -6.89619616E-23
   51.9799995      -6.62051199E-23
   52.0950012      -6.16022238E-23
   52.2099991      -5.49641234E-23
   52.3250008      -4.61258299E-23
   52.4399986      -3.49574591E-23
   52.5550003      -2.13759012E-23
   52.6699982      -5.35660852E-24
   52.7849998       1.30548828E-23
   52.9000015       3.37324812E-23
   53.0149994       5.64605547E-23
   53.1300011       8.09272082E-23
   53.2449989       1.06720574E-22
   53.3600006       1.33328436E-22
   53.4749985       1.60141982E-22
   53.5900002       1.86463885E-22
   53.7050018       2.11520846E-22
   53.8199997       2.34480763E-22
   53.9350014       2.54474335E-22
   54.0499992       2.70620488E-22
   54.1650009       2.82054983E-22
   54.2799988       2.87961695E-22
   54.3950005       2.87604550E-22
   54.5099983       2.80359954E-22
   54.6250000       2.65747398E-22
   54.7400017       2.43457495E-22
   54.8549995       2.13375238E-22
   54.9700012       1.75597762E-22
   55.0849991       1.30445269E-22
   55.2000008       7.84638291E-23
   55.3149986       2.04196456E-23
   55.4300003      -4.27152939E-23
   55.5449982      -1.09786593E-22
   55.6599998      -1.79488386E-22
   55.7750015      -2.50401693E-22
   55.8899994      -3.21038217E-22
   56.0050011      -3.89887573E-22
   56.1199989      -4.55465820E-22
   56.2350006      -5.16363458E-22
   56.3499985      -5.71289029E-22
   56.4650002      -6.19107227E-22
   56.5800018      -6.58868795E-22
   56.6949997      -6.89829251E-22
   56.8100014      -7.11457015E-22
   56.9249992      -7.23427253E-22
   57.0400009      -7.25605014E-22
   57.1549988      -7.18014582E-22
   57.2700005      -7.00798987E-22
   57.3849983      -6.74171485E-22
   57.5000000      -6.38361138E-22
   57.6150017      -5.93557979E-22
   57.7299995      -5.39860305E-22
   57.8450012      -4.77229495E-22
   57.9599991      -4.05455699E-22
   58.0750008      -3.24140649E-22
   58.1899986      -2.32698493E-22
   58.3050003      -1.30379030E-22
   58.4199982      -1.63151013E-23
   58.5349998       1.10406953E-22
   58.6500015       2.50654784E-22
   58.7649994       4.05135434E-22
   58.8800011       5.74268525E-22
   58.9949989       7.58048124E-22
   59.1100006       9.55902719E-22
   59.2249985       1.16656226E-21
   59.3400002       1.38793929E-21
   59.4550018       1.61703359E-21
   59.5699997       1.84987090E-21
   59.6850014       2.08148127E-21
   59.7999992       2.30592489E-21
   59.9150009       2.51636703E-21
   60.0299988       2.70521200E-21
   60.1450005       2.86428352E-21
   60.2599983       2.98506037E-21
   60.3750000       3.05895409E-21
   60.4900017       3.07761776E-21
   60.6049995       3.03328302E-21
   60.7200012       2.91910019E-21
   60.8349991       2.72947630E-21
   60.9500008       2.46038633E-21
   61.0649986       2.10964782E-21
   61.1800003       1.67713878E-21
   61.2949982       1.16494788E-21
   61.4099998       5.77447394E-22
   61.5250015      -7.87237682E-23
   61.6399994      -7.94762241E-22
   61.7550011      -1.55989401E-21
   61.8699989      -2.36164649E-21
   61.9850006      -3.18619228E-21
   62.0999985      -4.01874997E-21
   62.2150002      -4.84402015E-21
   62.3300018      -5.64662526E-21
   62.4449997      -6.41155084E-21
   62.5600014      -7.12454216E-21
   62.6749992      -7.77244187E-21
   62.7900009      -8.34343480E-21
   62.9049988      -8.82720944E-21
   63.0200005      -9.21499155E-21
   63.1349983      -9.49945767E-21
   63.2500000      -9.67453077E-21
   63.3650017      -9.73506763E-21
   63.4799995      -9.67644362E-21
   63.5950012      -9.49408423E-21
   63.7099991      -9.18295042E-21
   63.8250008      -8.73703867E-21
   63.9399986      -8.14892618E-21
   64.0550003      -7.40942348E-21
   64.1699982      -6.50736727E-21
   64.2850037      -5.42961758E-21
   64.4000015      -4.16127869E-21
   64.5149994      -2.68620684E-21
   64.6299973      -9.87794712E-22
   64.7450027       9.49938073E-22
   64.8600006       3.14096554E-21
   64.9749985       5.59560341E-21
   65.0899963       8.31862261E-21
   65.2050018       1.13072302E-20
   65.3199997       1.45489389E-20
   65.4349976       1.80194979E-20
   65.5500031       2.16809241E-20
   65.6650009       2.54798027E-20
   65.7799988       2.93460061E-20
   65.8949966       3.31919081E-20
   66.0100021       3.69122757E-20
   66.1250000       4.03849027E-20
   66.2399979       4.34721249E-20
   66.3550034       4.60232436E-20
   66.4700012       4.78779635E-20
   66.5849991       4.88707321E-20
   66.6999969       4.88360325E-20
   66.8150024       4.76144321E-20
   66.9300003       4.50593940E-20
   67.0449982       4.10444984E-20
   67.1600037       3.54709070E-20
   67.2750015       2.82747911E-20
   67.3899994       1.94344130E-20
   67.5049973       8.97655997E-21
   67.6200027      -3.01809791E-21
   67.7350006      -1.64109419E-20
   67.8499985      -3.10030396E-20
   67.9649963      -4.65346545E-20
   68.0800018      -6.26869715E-20
   68.1949997      -7.90860404E-20
   68.3099976      -9.53091202E-20
   68.4250031      -1.10893384E-19
   68.5400009      -1.25346866E-19
   68.6549988      -1.38161354E-19
   68.7699966      -1.48827047E-19
   68.8850021      -1.56848553E-19
   69.0000000      -1.61761567E-19
   69.1149979      -1.63150015E-19
   69.2300034      -1.60662760E-19
   69.3450012      -1.54029405E-19
   69.4599991      -1.43074574E-19
   69.5749969      -1.27730206E-19
   69.6900024      -1.08044903E-19
   69.8050003      -8.41905009E-20
   69.9199982      -5.64649577E-20
   70.0350037      -2.52915901E-20
   70.1500015       8.78549983E-21
   70.2649994       4.51099360E-20
   70.3799973       8.29252248E-20
   70.4950027       1.21390448E-19
   70.6100006       1.59598980E-19
   70.7249985       1.96599842E-19
   70.8399963       2.31421121E-19
   70.9550018       2.63094823E-19
   71.0699997       2.90682460E-19
   71.1849976       3.13300757E-19
   71.3000031       3.30146575E-19
   71.4150009       3.40520893E-19
   71.5299988       3.43850554E-19
   71.6449966       3.39707697E-19
   71.7600021       3.27826308E-19
   71.8750000       3.08115059E-19
   71.9899979       2.80666647E-19
   72.1050034       2.45763037E-19
   72.2200012       2.03876175E-19
   72.3349991       1.55664522E-19
   72.4499969       1.01965003E-19
   72.5650024       4.37804791E-20
   72.6800003      -1.77372420E-20
   72.7949982      -8.13085067E-20
   72.9100037      -1.45551230E-19
   73.0250015      -2.09009477E-19
   73.1399994      -2.70186010E-19
   73.2549973      -3.27576706E-19
   73.3700027      -3.79707903E-19
   73.4850006      -4.25174738E-19
   73.5999985      -4.62679702E-19
   73.7149963      -4.91071280E-19
   73.8300018      -5.09380923E-19
   73.9449997      -5.16857343E-19
   74.0599976      -5.12997305E-19
   74.1750031      -4.97571627E-19
   74.2900009      -4.70645192E-19
   74.4049988      -4.32589663E-19
   74.5199966      -3.84089194E-19
   74.6350021      -3.26136998E-19
   74.7500000      -2.60023166E-19
   74.8649979      -1.87312439E-19
   74.9800034      -1.09813926E-19
   75.0950012      -2.95404938E-20
   75.2099991       5.13395205E-20
   75.3249969       1.30558647E-19
   75.4400024       2.05812631E-19
   75.5550003       2.74828329E-19
   75.6699982       3.35434586E-19
   75.7850037       3.85634471E-19
   75.9000015       4.23677257E-19
   76.0149994       4.48127475E-19
   76.1299973       4.57929669E-19
   76.2450027       4.52465727E-19
   76.3600006       4.31602500E-19
   76.4749985       3.95729616E-19
   76.5899963       3.45782615E-19
   76.7050018       2.83252258E-19
   76.8199997       2.10176732E-19
   76.9349976       1.29116108E-19
   77.0500031       4.31091348E-20
   77.1650009      -4.43908221E-20
   77.2799988      -1.29597889E-19
   77.3949966      -2.08494441E-19
   77.5100021      -2.76950616E-19
   77.6250000      -3.30859010E-19
   77.7399979      -3.66283278E-19
   77.8550034      -3.79616680E-19
   77.9700012      -3.67747026E-19
   78.0849991      -3.28222630E-19
   78.1999969      -2.59414438E-19
   78.3150024      -1.60667194E-19
   78.4300003      -3.24326694E-20
   78.5449982       1.23619958E-19
   78.6600037       3.04527602E-19
   78.7750015       5.05993412E-19
   78.8899994       7.22393166E-19
   79.0049973       9.46832081E-19
   79.1200027       1.17125394E-18
   79.2350006       1.38660979E-18
   79.3499985       1.58308204E-18
   79.4649963       1.75036174E-18
   79.5800018       1.87797896E-18
   79.6949997       1.95567396E-18
   79.8099976       1.97380266E-18
   79.9250031       1.92375885E-18
   80.0400009       1.79840728E-18
   80.1549988       1.59250166E-18
   80.2699966       1.30307530E-18
   80.3850021       9.29786991E-19
   80.5000000       4.75199649E-19
   80.6149979      -5.50208167E-20
   80.7300034      -6.52003042E-19
   80.8450012      -1.30367635E-18
   80.9599991      -1.99489391E-18
   81.0749969      -2.70767813E-18
   81.1900024      -3.42158814E-18
   81.3050003      -4.11420487E-18
   81.4199982      -4.76172186E-18
   81.5350037      -5.33963035E-18
   81.6500015      -5.82347890E-18
   81.7649994      -6.18968582E-18
   81.8799973      -6.41637301E-18
   81.9950027      -6.48420430E-18
   82.1100006      -6.37718698E-18
   82.2249985      -6.08341710E-18
   82.3399963      -5.59573457E-18
   82.4550018      -4.91226542E-18
   82.5699997      -4.03683081E-18
   82.6849976      -2.97919810E-18
   82.8000031      -1.75516435E-18
   82.9150009      -3.86462763E-19
   83.0299988       1.09951204E-18
   83.1449966       2.67015722E-18
   83.2600021       4.28828793E-18
   83.3750000       5.91292152E-18
   83.4899979       7.50021205E-18
   83.6050034       9.00449955E-18
   83.7200012       1.03794673E-17
   83.8349991       1.15793755E-17
   83.9499969       1.25603273E-17
   84.0650024       1.32815775E-17
   84.1800003       1.37068005E-17
   84.2949982       1.38053400E-17
   84.4100037       1.35533626E-17
   84.5250015       1.29349194E-17
   84.6399994       1.19428709E-17
   84.7549973       1.05796334E-17
   84.8700027       8.85774530E-18
   84.9850006       6.80020508E-18
   85.0999985       4.44056319E-18
   85.2149963       1.82274583E-18
   85.3300018      -9.99408715E-19
   85.4449997      -3.96290486E-18
   85.5599976      -6.99665344E-18
   85.6750031      -1.00228416E-17
   85.7900009      -1.29585842E-17
   85.9049988      -1.57178610E-17
   86.0199966      -1.82136866E-17
   86.1350021      -2.03604883E-17
   86.2500000      -2.20766349E-17
   86.3649979      -2.32870384E-17
   86.4800034      -2.39257939E-17
   86.5950012      -2.39387294E-17
   86.7099991      -2.32858307E-17
   86.8249969      -2.19434043E-17
   86.9400024      -1.99059178E-17
   87.0550003      -1.71874284E-17
   87.1699982      -1.38225222E-17
   87.2850037      -9.86669472E-18
   87.4000015      -5.39611976E-18
   87.5149994      -5.06773857E-19
   87.6299973       4.68709652E-18
   87.7450027       1.00551653E-17
   87.8600006       1.54538150E-17
   87.9749985       2.07295233E-17
   88.0899963       2.57227098E-17
   88.2050018       3.02720046E-17
   88.3199997       3.42187712E-17
   88.4349976       3.74118306E-17
   88.5500031       3.97121637E-17
   88.6650009       4.09975395E-17
   88.7799988       4.11668633E-17
   88.8949966       4.01441637E-17
   89.0100021       3.78820729E-17
   89.1250000       3.43646594E-17
   89.2399979       2.96096116E-17
   89.3550034       2.36695515E-17
   89.4700012       1.66325573E-17
   89.5849991       8.62180113E-18
   89.6999969      -2.05718242E-19
   89.8150024      -9.66138270E-18
   89.9300003      -1.95279757E-17
   90.0449982      -2.95636105E-17
   90.1600037      -3.95064339E-17
   90.2750015      -4.90800271E-17
   90.3899994      -5.79995289E-17
   90.5049973      -6.59782749E-17
   90.6200027      -7.27349045E-17
   90.7350006      -7.80008157E-17
   90.8499985      -8.15278013E-17
   90.9649963      -8.30958049E-17
   91.0800018      -8.25204577E-17
   91.1949997      -7.96604047E-17
   91.3099976      -7.44240999E-17
   91.4250031      -6.67758622E-17
   91.5400009      -5.67410298E-17
   91.6549988      -4.44099275E-17
   91.7699966      -2.99404078E-17
   91.8850021      -1.35588137E-17
   92.0000000       4.44087297E-18
   92.1149979       2.36998694E-17
   92.2300034       4.37994980E-17
   92.3450012       6.42682411E-17
   92.4599991       8.45909040E-17
   92.5749969       1.04219874E-16
   92.6900024       1.22588140E-16
   92.8050003       1.39124090E-16
   92.9199982       1.53267382E-16
   93.0350037       1.64485831E-16
   93.1500015       1.72292510E-16
   93.2649994       1.76262792E-16
   93.3799973       1.76050464E-16
   93.4950027       1.71402556E-16
   93.6100006       1.62172108E-16
   93.7249985       1.48328492E-16
   93.8399963       1.29964553E-16
   93.9550018       1.07300473E-16
   94.0699997       8.06836933E-17
   94.1849976       5.05850061E-17
   94.3000031       1.75906591E-17
   94.4150009      -1.76094824E-17
   94.5299988      -5.42373030E-17
   94.6449966      -9.14450483E-17
   94.7600021      -1.28336688E-16
   94.8750000      -1.63991323E-16
   94.9899979      -1.97487836E-16
   95.1050034      -2.27930319E-16
   95.2200012      -2.54473023E-16
   95.3349991      -2.76344446E-16
   95.4499969      -2.92869662E-16
   95.5650024      -3.03489867E-16
   95.6800003      -3.07779136E-16
   95.7949982      -3.05457630E-16
   95.9100037      -2.96400439E-16
   96.0250015      -2.80642635E-16
   96.1399994      -2.58379857E-16
   96.2549973      -2.29964548E-16
   96.3700027      -1.95898339E-16
   96.4850006      -1.56820262E-16
   96.5999985      -1.13491615E-16
   96.7149963      -6.67780195E-17
   96.8300018      -1.76285457E-17
   96.9449997       3.29469678E-17
   97.0599976       8.39019023E-17
   97.1750031       1.34177907E-16
   97.2900009       1.82729968E-16
   97.4049988       2.28551247E-16
   97.5199966       2.70696854E-16
   97.6350021       3.08306334E-16
   97.7500000       3.40623765E-16
   97.8649979       3.67015379E-16
   97.9800034       3.86984393E-16
   98.0950012       4.00181828E-16
   98.2099991       4.06413290E-16
   98.3249969       4.05642199E-16
   98.4400024       3.97987721E-16