   0.00000000       0.00000000    
  0.115000002       0.00000000    
  0.230000004       0.00000000    
  0.344999999       0.00000000    
  0.460000008       0.00000000    
  0.574999988       0.00000000    
  0.689999998       0.00000000    
  0.805000007       0.00000000    
  0.920000017       0.00000000    
   1.03499997       0.00000000    
   1.14999998       0.00000000    
   1.26499999       0.00000000    
   1.38000000       0.00000000    
   1.49500000       0.00000000    
   1.61000001       0.00000000    
   1.72500002       0.00000000    
   1.84000003       0.00000000    
   1.95500004       0.00000000    
   2.06999993       0.00000000    
   2.18499994       0.00000000    
   2.29999995       0.00000000    
   2.41499996       0.00000000    
   2.52999997       0.00000000    
   2.64499998       0.00000000    
   2.75999999       0.00000000    
   2.87500000       0.00000000    
   2.99000001       0.00000000    
   3.10500002       0.00000000    
   3.22000003       0.00000000    
   3.33500004       0.00000000    
   3.45000005       0.00000000    
   3.56500006       0.00000000    
   3.68000007       0.00000000    
   3.79500008       0.00000000    
   3.91000009       0.00000000    
   4.02500010       0.00000000    
   4.13999987       0.00000000    
   4.25500011       0.00000000    
   4.36999989       0.00000000    
   4.48500013       0.00000000    
   4.59999990       0.00000000    
   4.71500015       0.00000000    
   4.82999992       0.00000000    
   4.94500017       0.00000000    
   5.05999994       0.00000000    
   5.17500019       0.00000000    
   5.28999996       0.00000000    
   5.40500021       0.00000000    
   5.51999998       0.00000000    
   5.63500023       0.00000000    
   5.75000000       0.00000000    
   5.86499977       0.00000000    
   5.98000002       0.00000000    
   6.09499979       0.00000000    
   6.21000004       0.00000000    
   6.32499981       0.00000000    
   6.44000006       0.00000000    
   6.55499983       0.00000000    
   6.67000008       0.00000000    
   6.78499985       0.00000000    
   6.90000010       0.00000000    
   7.01499987       0.00000000    
   7.13000011       0.00000000    
   7.24499989       0.00000000    
   7.36000013       0.00000000    
   7.47499990       0.00000000    
   7.59000015       0.00000000    
   7.70499992       0.00000000    
   7.82000017       0.00000000    
   7.93499994       0.00000000    
   8.05000019       0.00000000    
   8.16499996       0.00000000    
   8.27999973       0.00000000    
   8.39500046       0.00000000    
   8.51000023       0.00000000    
   8.62500000       0.00000000    
   8.73999977       0.00000000    
   8.85499954       0.00000000    
   8.97000027       0.00000000    
   9.08500004       0.00000000    
   9.19999981       0.00000000    
   9.31499958       0.00000000    
   9.43000031       0.00000000    
   9.54500008       0.00000000    
   9.65999985       0.00000000    
   9.77499962       0.00000000    
   9.89000034       0.00000000    
   10.0050001      -6.61286758E-41
   10.1199999      -1.29896164E-40
   10.2349997      -1.93663652E-40
   10.3500004      -2.57429738E-40
   10.4650002      -3.21197226E-40
   10.5799999      -3.84964714E-40
   10.6949997      -4.48730801E-40
   10.8100004      -5.12498289E-40
   10.9250002      -5.76265777E-40
   11.0400000      -6.40031863E-40
   11.1549997      -7.37108216E-40
   11.2700005      -7.64587678E-40
   11.3850002      -7.94429731E-40
   11.5000000      -8.24271783E-40
   11.6149998      -8.54113835E-40
   11.7299995      -8.83955887E-40
   11.8450003      -9.13796538E-40
   11.9600000      -6.66615896E-40
   12.0749998      -3.61013721E-40
   12.1899996      -2.05472394E-41
   12.3050003       4.53991275E-40
   12.4200001       1.15538320E-39
   12.5349998       2.18642217E-39
   12.6499996       3.65474614E-39
   12.7650003       5.31031582E-39
   12.8800001       6.86837894E-39
   12.9949999       8.18135357E-39
   13.1099997       9.37658829E-39
   13.2250004       1.15460463E-38
   13.3400002       1.46152501E-38
   13.4549999       1.91884535E-38
   13.5699997       2.61844613E-38
   13.6850004       3.60256879E-38
   13.8000002       2.15093387E-38
   13.9150000       8.52581515E-39
   14.0299997      -4.91234986E-39
   14.1450005       5.69665381E-39
   14.2600002       1.06848405E-38
   14.3750000       3.30945919E-39
   14.4899998      -1.96836598E-38
   14.6049995      -1.82157884E-38
   14.7200003      -1.91266030E-38
   14.8350000      -1.80995059E-38
   14.9499998      -2.48998181E-38
   15.0649996      -3.86110248E-38
   15.1800003      -5.44198967E-38
   15.2950001      -8.43066726E-38
   15.4099998      -1.06344529E-37
   15.5249996      -1.17474998E-37
   15.6400003      -1.91422303E-37
   15.7550001      -2.53138312E-37
   15.8699999      -3.30039464E-37
   15.9849997      -2.46283295E-37
   16.1000004      -2.48478087E-37
   16.2150002      -8.60225402E-38
   16.3299999       6.03066507E-38
   16.4449997       1.79547419E-37
   16.5599995       1.89864821E-37
   16.6749992       1.65877103E-37
   16.7900009       2.64371793E-37
   16.9050007       3.19463742E-37
   17.0200005       3.19210544E-37
   17.1350002       6.72134266E-37
   17.2500000       1.97669179E-36
   17.3649998       4.79434311E-36
   17.4799995       9.10477987E-36
   17.5949993       1.48721416E-35
   17.7099991       2.10872781E-35
   17.8250008       2.76535620E-35
   17.9400005       3.38586511E-35
   18.0550003       3.81550973E-35
   18.1700001       4.05027714E-35
   18.2849998       4.11475283E-35
   18.3999996       3.93780420E-35
   18.5149994       3.42493911E-35
   18.6299992       2.57650339E-35
   18.7450008       1.39326042E-35
   18.8600006      -9.59403814E-37
   18.9750004      -1.84599693E-35
   19.0900002      -3.68568706E-35
   19.2049999      -5.44392613E-35
   19.3199997      -6.92651953E-35
   19.4349995      -7.81923173E-35
   19.5499992      -7.68468239E-35
   19.6650009      -6.21223682E-35
   19.7800007      -2.91058084E-35
   19.8950005       2.56635987E-35
   20.0100002       1.05673900E-34
   20.1250000       2.10874457E-34
   20.2399998       3.39742548E-34
   20.3549995       4.86313171E-34
   20.4699993       6.43402103E-34
   20.5849991       7.96041468E-34
   20.7000008       9.27790967E-34
   20.8150005       1.01695534E-33
   20.9300003       1.03830874E-33
   21.0450001       9.62740802E-34
   21.1599998       7.61953418E-34
   21.2749996       4.12100493E-34
   21.3899994      -1.08812768E-34
   21.5049992      -8.13753229E-34
   21.6200008      -1.70508449E-33
   21.7350006      -2.76959106E-33
   21.8500004      -3.97683918E-33
   21.9650002      -5.27813604E-33
   22.0799999      -6.60237928E-33
   22.1949997      -7.85801296E-33
   22.3099995      -8.93609483E-33
   22.4249992      -9.71473421E-33
   22.5400009      -1.00638193E-32
   22.6550007      -9.85119955E-33
   22.7700005      -8.95073267E-33
   22.8850002      -7.25930798E-33
   23.0000000      -4.70071889E-33
   23.1149998      -1.24394100E-33
   23.2299995       3.09110750E-33
   23.3449993       8.22451814E-33
   23.4599991       1.40094036E-32
   23.5750008       2.02285827E-32
   23.6900005       2.65975727E-32
   23.8050003       3.27674663E-32
   23.9200001       3.83394477E-32
   24.0349998       4.28751514E-32
   24.1499996       4.59186885E-32
   24.2649994       4.70133147E-32
   24.3799992       4.57258986E-32
   24.4950008       4.16668931E-32
   24.6100006       3.45105893E-32
   24.7250004       2.40126224E-32
   24.8400002       1.00223082E-32
   24.9549999      -7.50802862E-33
   25.0699997      -2.85196941E-32
   25.1849995      -5.28442310E-32
   25.2999992      -8.01972499E-32
   25.4150009      -1.10173102E-31
   25.5300007      -1.42228292E-31
   25.6450005      -1.75658705E-31
   25.7600002      -2.09547008E-31
   25.8750000      -2.42703613E-31
   25.9899998      -2.73583239E-31
   26.1049995      -3.00176400E-31
   26.2199993      -3.19893061E-31
   26.3349991      -3.29440638E-31
   26.4500008      -3.24712800E-31
   26.5650005      -3.00702011E-31
   26.6800003      -2.51479454E-31
   26.7950001      -1.70248657E-31
   26.9099998      -4.95194451E-32
   27.0249996       1.18571281E-31
   27.1399994       3.41769693E-31
   27.2549992       6.27012966E-31
   27.3700008       9.79534647E-31
   27.4850006       1.40177429E-30
   27.6000004       1.89210241E-30
   27.7150002       2.44342977E-30
   27.8299999       3.04176034E-30
   27.9449997       3.66480093E-30
   28.0599995       4.28074794E-30
   28.1749992       4.84740806E-30
   28.2900009       5.31182688E-30
   28.4050007       5.61058977E-30
   28.5200005       5.67098423E-30
   28.6350002       5.41316653E-30
   28.7500000       4.75344261E-30
   28.8649998       3.60874396E-30
   28.9799995       1.90226978E-30
   29.0949993      -4.29792708E-31
   29.2099991      -3.43069174E-30
   29.3250008      -7.11497729E-30
   29.4400005      -1.14602680E-29
   29.5550003      -1.63994214E-29
   29.6700001      -2.18137927E-29
   29.7849998      -2.75282345E-29
   29.8999996      -3.33085913E-29
   30.0149994      -3.88623864E-29
   30.1299992      -4.38433348E-29
   30.2450008      -4.78601746E-29
   30.3600006      -5.04901072E-29
   30.4750004      -5.12968431E-29
   30.5900002      -4.98529945E-29
   30.7049999      -4.57661170E-29
   30.8199997      -3.87073671E-29
   30.9349995      -2.84413029E-29
   31.0499992      -1.48551009E-29
   31.1650009       2.01495305E-30
   31.2800007       2.19619329E-29
   31.3950005       4.45940472E-29
   31.5100002       6.93298789E-29
   31.6250000       9.54051287E-29
   31.7399998       1.21892106E-28
   31.8549995       1.47732886E-28
   31.9699993       1.71785789E-28
   32.0849991       1.92884063E-28
   32.2000008       2.09904384E-28
   32.3149986       2.21841611E-28
   32.4300003       2.27884890E-28
   32.5449982       2.27489858E-28
   32.6599998       2.20439847E-28
   32.7750015       2.06889606E-28
   32.8899994       1.87384630E-28
   33.0050011       1.62849606E-28
   33.1199989       1.34541241E-28
   33.2350006       1.03961915E-28
   33.3499985       7.27337916E-29
   33.4650002       4.24350196E-29
   33.5800018       1.44044529E-29
   33.6949997      -1.04760696E-29
   33.8100014      -3.20084622E-29
   33.9249992      -5.08972608E-29
   34.0400009      -6.89404198E-29
   34.1549988      -8.91700087E-29
   34.2700005      -1.15919135E-28
   34.3849983      -1.54792214E-28
   34.5000000      -2.12517751E-28
   34.6150017      -2.96666613E-28
   34.7299995      -4.15225248E-28
   34.8450012      -5.76020898E-28
   34.9599991      -7.86006436E-28
   35.0750008      -1.05042309E-27
   35.1899986      -1.37187245E-27
   35.3050003      -1.74934162E-27
   35.4199982      -2.17723780E-27
   35.5349998      -2.64449961E-27
   35.6500015      -3.13386069E-27
   35.7649994      -3.62135111E-27
   35.8800011      -4.07611248E-27
   35.9949989      -4.46061360E-27
   36.1100006      -4.73133272E-27
   36.2249985      -4.83996017E-27
   36.3400002      -4.73515530E-27
   36.4550018      -4.36486291E-27
   36.5699997      -3.67915828E-27
   36.6850014      -2.63355243E-27
   36.7999992      -1.19265947E-27
   36.9150009       6.65928219E-28
   37.0299988       2.94773920E-27
   37.1450005       5.63771579E-27
   37.2599983       8.69694650E-27
   37.3750000       1.20601017E-26
   37.4900017       1.56338396E-26
   37.6049995       1.92964375E-26
   37.7200012       2.28988756E-26
   37.8349991       2.62675582E-26
   37.9500008       2.92087830E-26
   38.0649986       3.15150178E-26
   38.1800003       3.29728852E-26
   38.2949982       3.33727329E-26
   38.4099998       3.25194812E-26
   38.5250015       3.02443539E-26
   38.6399994       2.64170073E-26
   38.7550011       2.09574134E-26
   38.8699989       1.38468370E-26
   38.9850006       5.13718509E-27
   39.0999985      -5.04205301E-27
   39.2150002      -1.64799607E-26
   39.3300018      -2.88841143E-26
   39.4449997      -4.18847639E-26
   39.5600014      -5.50436571E-26
   39.6749992      -6.78676142E-26
   39.7900009      -7.98266839E-26
   39.9049988      -9.03765707E-26
   40.0200005      -9.89844730E-26
   40.1349983      -1.05157340E-25
   40.2500000      -1.08471283E-25
   40.3650017      -1.08600385E-25
   40.4799995      -1.05343327E-25
   40.5950012      -9.86456326E-26
   40.7099991      -8.86159749E-26
   40.8250008      -7.55343130E-26
   40.9399986      -5.98505441E-26
   41.0550003      -4.21723191E-26
   41.1699982      -2.32411180E-26
   41.2849998      -3.89671518E-27
   41.4000015       1.49695170E-26
   41.5149994       3.24712682E-26
   41.6300011       4.77913291E-26
   41.7449989       6.02503486E-26
   41.8600006       6.93761813E-26
   41.9749985       7.49695379E-26
   42.0900002       7.71609318E-26
   42.2050018       7.64538043E-26
   42.3199997       7.37484305E-26
   42.4350014       7.03420490E-26
   42.5499992       6.79009374E-26
   42.6650009       6.84016545E-26
   42.7799988       7.40395880E-26
   42.8950005       8.71054480E-26
   43.0099983       1.09831378E-25
   43.1250000       1.44211921E-25
   43.2400017       1.91806106E-25
   43.3549995       2.53530133E-25
   43.4700012       3.29451364E-25
   43.5849991       4.18597552E-25
   43.7000008       5.18794424E-25
   43.8149986       6.26547203E-25
   43.9300003       7.36980482E-25
   44.0449982       8.43850131E-25
   44.1599998       9.39638454E-25
   44.2750015       1.01574184E-24
   44.3899994       1.06275420E-24
   44.5050011       1.07084762E-24
   44.6199989       1.03024248E-24
   44.7350006       9.31756550E-25
   44.8499985       7.67413799E-25
   44.9650002       5.31089117E-25
   45.0800018       2.19158255E-25
   45.1949997      -1.68881167E-25
   45.3100014      -6.29856376E-25
   45.4249992      -1.15647433E-24
   45.5400009      -1.73702478E-24
   45.6549988      -2.35526848E-24
   45.7700005      -2.99054329E-24
   45.8849983      -3.61811449E-24
   46.0000000      -4.20978423E-24
   46.1150017      -4.73476248E-24
   46.2299995      -5.16078957E-24
   46.3450012      -5.45548829E-24
   46.4599991      -5.58789741E-24
   46.5750008      -5.53013701E-24
   46.6899986      -5.25912897E-24
   46.8050003      -4.75830012E-24
   46.9199982      -4.01915954E-24
   47.0349998      -3.04266964E-24
   47.1500015      -1.84030462E-24
   47.2649994      -4.34704514E-25
   47.3800011       1.14015181E-24
   47.4949989       2.83932438E-24
   47.6100006       4.60788406E-24
   47.7249985       6.38249017E-24
   47.8400002       8.09355748E-24
   47.9550018       9.66796923E-24
   48.0699997       1.10322497E-23
   48.1850014       1.21160610E-23
   48.2999992       1.28559060E-23
   48.4150009       1.31988152E-23
   48.5299988       1.31058629E-23
   48.6450005       1.25552680E-23
   48.7599983       1.15448957E-23
   48.8750000       1.00939368E-23
   48.9900017       8.24361460E-24
   49.1049995       6.05676753E-24
   49.2200012       3.61622122E-24
   49.3349991       1.02192996E-24
   49.4500008      -1.61309473E-24
   49.5649986      -4.16793121E-24
   49.6800003      -6.51980404E-24
   49.7949982      -8.55078126E-24
   49.9099998      -1.01547950E-23
   50.0250015      -1.12446127E-23
   50.1399994      -1.17583276E-23
   50.2550011      -1.16649753E-23
   50.3699989      -1.09688127E-23
   50.4850006      -9.71189222E-24
   50.5999985      -7.97462171E-24
   50.7150002      -5.87400266E-24
   50.8300018      -3.55950212E-24
   50.9449997      -1.20646227E-24
   51.0600014       9.92722482E-25
   51.1749992       2.83941628E-24
   51.2900009       4.14109574E-24
   51.4049988       4.72459564E-24
   51.5200005       4.44956323E-24
   51.6349983       3.22132061E-24
   51.7500000       1.00222875E-24
   51.8650017      -2.17934974E-24
   51.9799995      -6.22325623E-24
   52.0950012      -1.09557697E-23
   52.2099991      -1.61323586E-23
   52.3250008      -2.14453636E-23
   52.4399986      -2.65368107E-23
   52.5550003      -3.10160229E-23
   52.6699982      -3.44817192E-23
   52.7849998      -3.65475692E-23
   52.9000015      -3.68702417E-23
   53.0149994      -3.51783307E-23
   53.1300011      -3.13005997E-23
   53.2449989      -2.51915157E-23
   53.3600006      -1.69522485E-23
   53.4749985      -6.84516064E-24
   53.5900002       4.70005339E-24
   53.7050018       1.70900089E-23
   53.8199997       2.95823660E-23
   53.9350014       4.13121313E-23
   54.0499992       5.13296045E-23
   54.1650009       5.86493912E-23
   54.2799988       6.23090684E-23
   54.3950005       6.14351999E-23
   54.5099983       5.53141757E-23
   54.6250000       4.34640586E-23
   54.7400017       2.57036631E-23
   54.8549995       2.21410024E-24
   54.9700012      -2.64113976E-23
   55.0849991      -5.91341179E-23
   55.2000008      -9.44572266E-23
   55.3149986      -1.30437280E-22
   55.4300003      -1.64722929E-22
   55.5449982      -1.94622146E-22
   55.6599998      -2.17198575E-22
   55.7750015      -2.29395677E-22
   55.8899994      -2.28185830E-22
   56.0050011      -2.10740038E-22
   56.1199989      -1.74611761E-22
   56.2350006      -1.17927725E-22
   56.3499985      -3.95762996E-23
   56.4650002       6.06161729E-23
   56.5800018       1.81731704E-22
   56.6949997       3.21640225E-22
   56.8100014       4.76922130E-22
   56.9249992       6.42844140E-22
   57.0400009       8.13394050E-22
   57.1549988       9.81382447E-22
   57.2700005       1.13861219E-21
   57.3849983       1.27611613E-21
   57.5000000       1.38446073E-21
   57.6150017       1.45410657E-21
   57.7299995       1.47581784E-21
   57.8450012       1.44110413E-21
   57.9599991       1.34268084E-21
   58.0750008       1.17492655E-21
   58.1899986       9.34317062E-22
   58.3050003       6.19815460E-22
   58.4199982       2.33193670E-22
   58.5349998      -2.20732596E-22
   58.6500015      -7.33975371E-22
   58.7649994      -1.29536777E-21
   58.8800011      -1.89069012E-21
   58.9949989      -2.50293241E-21
   59.1100006      -3.11269761E-21
   59.2249985      -3.69873407E-21
   59.3400002      -4.23858615E-21
   59.4550018      -4.70934723E-21
   59.5699997      -5.08848030E-21
   59.6850014      -5.35468423E-21
   59.7999992      -5.48876867E-21
   59.9150009      -5.47449657E-21
   60.0299988      -5.29936006E-21
   60.1450005      -4.95524767E-21
   60.2599983      -4.43897428E-21
   60.3750000      -3.75263813E-21
   60.4900017      -2.90377897E-21
   60.6049995      -1.90533017E-21
   60.7200012      -7.75351164E-22
   60.8349991       4.63455353E-22
   60.9500008       1.78442366E-21
   61.0649986       3.15777895E-21
   61.1800003       4.55163039E-21
   61.2949982       5.93305796E-21
   61.4099998       7.26924384E-21
   61.5250015       8.52858754E-21
   61.6399994       9.68175648E-21
   61.7550011       1.07026040E-20
   61.8699989       1.15689133E-20
   61.9850006       1.22629154E-20
   62.0999985       1.27715515E-20
   62.2150002       1.30864537E-20
   62.3300018       1.32036460E-20
   62.4449997       1.31229765E-20
   62.5600014       1.28472991E-20
   62.6749992       1.23814616E-20
   62.7900009       1.17311708E-20
   62.9049988       1.09017825E-20
   63.0200005       9.89713687E-21
   63.1349983       8.71850466E-21
   63.2500000       7.36375164E-21
   63.3650017       5.82681291E-21
   63.4799995       4.09754175E-21
   63.5950012       2.16201465E-21
   63.7099991       3.32448113E-24
   63.8250008      -2.39711247E-21
   63.9399986      -5.05775708E-21
   64.0550003      -7.99468931E-21
   64.1699982      -1.12189715E-20
   64.2850037      -1.47337427E-20
   64.4000015      -1.85311819E-20
   64.5149994      -2.25894850E-20
   64.6299973      -2.68700655E-20
   64.7450027      -3.13151387E-20
   64.8600006      -3.58459042E-20
   64.9749985      -4.03615122E-20
   65.0899963      -4.47389391E-20
   65.2050018      -4.88339646E-20
   65.3199997      -5.24833045E-20
   65.4349976      -5.55079485E-20
   65.5500031      -5.77177163E-20
   65.6650009      -5.89169666E-20
   65.7799988      -5.89112539E-20
   65.8949966      -5.75148632E-20
   66.0100021      -5.45588880E-20
   66.1250000      -4.98995412E-20
   66.2399979      -4.34264749E-20
   66.3550034      -3.50706000E-20
   66.4700012      -2.48111694E-20
   66.5849991      -1.26816853E-20
   66.6999969       1.22568901E-21
   66.8150024       1.67574239E-20
   66.9300003       3.36979746E-20
   67.0449982       5.17712215E-20
   67.1600037       7.06441194E-20
   67.2750015       8.99324850E-20
   67.3899994       1.09208843E-19
   67.5049973       1.28011990E-19
   67.6200027       1.45858102E-19
   67.7350006       1.62252821E-19
   67.8499985       1.76704029E-19
   67.9649963       1.88734724E-19
   68.0800018       1.97895517E-19
   68.1949997       2.03776280E-19
   68.3099976       2.06016518E-19
   68.4250031       2.04314038E-19
   68.5400009       1.98431788E-19
   68.6549988       1.88202472E-19
   68.7699966       1.73531209E-19
   68.8850021       1.54396001E-19
   69.0000000       1.30846531E-19
   69.1149979       1.03001454E-19
   69.2300034       7.10446881E-20
   69.3450012       3.52212374E-20
   69.4599991      -4.16693001E-21
   69.5749969      -4.67643522E-20
   69.6900024      -9.21645026E-20
   69.8050003      -1.39910492E-19
   69.9199982      -1.89493999E-19
   70.0350037      -2.40352242E-19
   70.1500015      -2.91862821E-19
   70.2649994      -3.43337262E-19
   70.3799973      -3.94012906E-19
   70.4950027      -4.43044864E-19
   70.6100006      -4.89498190E-19
   70.7249985      -5.32341751E-19
   70.8399963      -5.70445154E-19
   70.9550018      -6.02579570E-19
   71.0699997      -6.27424405E-19
   71.1849976      -6.43580276E-19
   71.3000031      -6.49590312E-19
   71.4150009      -6.43969464E-19
   71.5299988      -6.25243439E-19
   71.6449966      -5.91996414E-19
   71.7600021      -5.42927388E-19
   71.8750000      -4.76914601E-19
   71.9899979      -3.93085817E-19
   72.1050034      -2.90893339E-19
   72.2200012      -1.70190007E-19
   72.3349991      -3.13042464E-20
   72.4499969       1.24889810E-19
   72.5650024       2.96911001E-19
   72.6800003       4.82622199E-19
   72.7949982       6.79197432E-19
   72.9100037       8.83109913E-19
   73.0250015       1.09014247E-18
   73.1399994       1.29542512E-18
   73.2549973       1.49350045E-18
   73.3700027       1.67841884E-18
   73.4850006       1.84386334E-18
   73.5999985       1.98330283E-18
   73.7149963       2.09017270E-18
   73.8300018       2.15807658E-18
   73.9449997       2.18100851E-18
   74.0599976       2.15358375E-18
   74.1750031       2.07127783E-18
   74.2900009       1.93066044E-18
   74.4049988       1.72961615E-18
   74.5199966       1.46754693E-18
   74.6350021       1.14554134E-18
   74.7500000       7.66505312E-19
   74.8649979       3.35245394E-19
   74.9800034      -1.41503551E-19
   75.0950012      -6.55111432E-19
   75.2099991      -1.19515098E-18
   75.3249969      -1.74956310E-18
   75.4400024      -2.30488935E-18
   75.5550003      -2.84656713E-18
   75.6699982      -3.35928573E-18
   75.7850037      -3.82739240E-18
   75.9000015      -4.23533844E-18
   76.0149994      -4.56815622E-18
   76.1299973      -4.81194702E-18
   76.2450027      -4.95437098E-18
   76.3600006      -4.98511729E-18
   76.4749985      -4.89633806E-18
   76.5899963      -4.68303382E-18
   76.7050018      -4.34336989E-18
   76.8199997      -3.87891211E-18
   76.9349976      -3.29476771E-18
   77.0500031      -2.59962580E-18
   77.1650009      -1.80568771E-18
   77.2799988      -9.28485836E-19
   77.3949966       1.34078643E-20
   77.5100021       9.98777990E-19
   77.6250000       2.00426007E-18
   77.7399979       3.00491845E-18
   77.8550034       3.97489484E-18
   77.9700012       4.88810637E-18
   78.0849991       5.71897828E-18
   78.1999969       6.44318111E-18
   78.3150024       7.03836072E-18
   78.4300003       7.48482815E-18
   78.5449982       7.76619859E-18
   78.6600037       7.86994607E-18
   78.7750015       7.78787569E-18
   78.8899994       7.51647029E-18
   79.0049973       7.05713027E-18
   79.1200027       6.41627623E-18
   79.2350006       5.60531539E-18
   79.3499985       4.64047414E-18
   79.4649963       3.54250065E-18
   79.5800018       2.33623081E-18
   79.6949997       1.05004623E-18
   79.8099976      -2.84781354E-19
   79.9250031      -1.63483170E-18
   80.0400009      -2.96535233E-18
   80.1549988      -4.24113202E-18
   80.2699966      -5.42740538E-18
   80.3850021      -6.49077542E-18
   80.5000000      -7.40012568E-18
   80.6149979      -8.12750529E-18
   80.7300034      -8.64896574E-18
   80.8450012      -8.94532140E-18
   80.9599991      -9.00282699E-18
   81.0749969      -8.81374260E-18
   81.1900024      -8.37677038E-18
   81.3050003      -7.69735235E-18
   81.4199982      -6.78781267E-18
   81.5350037      -5.66733201E-18
   81.6500015      -4.36174777E-18
   81.7649994      -2.90317503E-18
   81.8799973      -1.32944716E-18
   81.9950027       3.16625067E-19
   82.1100006       1.98816355E-18
   82.2249985       3.63529418E-18
   82.3399963       5.20635873E-18
   82.4550018       6.64925413E-18
   82.5699997       7.91285772E-18
   82.6849976       8.94852424E-18
   82.8000031       9.71160828E-18
   82.9150009       1.01629710E-17
   83.0299988       1.02704358E-17
   83.1449966       1.00101477E-17
   83.2600021       9.36778487E-18
   83.3750000       8.33958365E-18
   83.4899979       6.93313094E-18
   83.6050034       5.16789277E-18
   83.7200012       3.07543436E-18
   83.8349991       6.99307951E-19
   83.9499969      -1.90540537E-18
   84.0650024      -4.67292195E-18
   84.1800003      -7.52793914E-18
   84.2949982      -1.03871758E-17
   84.4100037      -1.31612492E-17
   84.5250015      -1.57568427E-17
   84.6399994      -1.80791440E-17
   84.7549973      -2.00344881E-17
   84.8700027      -2.15331376E-17
   84.9850006      -2.24921410E-17
   85.0999985      -2.28381887E-17
   85.2149963      -2.25103836E-17
   85.3300018      -2.14628454E-17
   85.4449997      -1.96670512E-17
   85.5599976      -1.71138408E-17
   85.6750031      -1.38150189E-17
   85.7900009      -9.80443449E-18
   85.9049988      -5.13853737E-18
   86.0199966       1.03688996E-19
   86.1350021       5.82144031E-18
   86.2500000       1.18934576E-17
   86.3649979       1.81800915E-17
   86.4800034       2.45259945E-17
   86.5950012       3.07634657E-17
   86.7099991       3.67163339E-17
   86.8249969       4.22043794E-17
   86.9400024       4.70481009E-17
   87.0550003       5.10738103E-17
   87.1699982       5.41188474E-17
   87.2850037       5.60368344E-17
   87.4000015       5.67027479E-17
   87.5149994       5.60177365E-17
   87.6299973       5.39133857E-17
   87.7450027       5.03554337E-17
   87.8600006       4.53466533E-17
   87.9749985       3.89288302E-17
   88.0899963       3.11837132E-17
   88.2050018       2.22328232E-17
   88.3199997       1.22360899E-17
   88.4349976       1.38928675E-18
   88.5500031      -1.00797491E-17
   88.6650009      -2.19160163E-17
   88.7799988      -3.38433073E-17
   88.8949966      -4.55710674E-17
   89.0100021      -5.68020030E-17
   89.1250000      -6.72402017E-17
   89.2399979      -7.65995717E-17
   89.3550034      -8.46122850E-17
   89.4700012      -9.10370365E-17
   89.5849991      -9.56667466E-17
   89.6999969      -9.83355687E-17
   89.8150024      -9.89247794E-17
   89.9300003      -9.73675027E-17
   90.0449982      -9.36519728E-17
   90.1600037      -8.78231818E-17
   90.2750015      -7.99828926E-17
   90.3899994      -7.02878792E-17
   90.5049973      -5.89465051E-17
   90.6200027      -4.62136081E-17
   90.7350006      -3.23839390E-17
   90.8499985      -1.77842095E-17
   90.9649963      -2.76410839E-18
   91.0800018       1.23135281E-17
   91.1949997       2.70830645E-17
   91.3099976       4.11865966E-17
   91.4250031       5.42843299E-17
   91.5400009       6.60645266E-17
   91.6549988       7.62526124E-17
   91.7699966       8.46192598E-17
   91.8850021       9.09871079E-17
   92.0000000       9.52359443E-17
   92.1149979       9.73061855E-17
   92.2300034       9.72005578E-17
   92.3450012       9.49838792E-17
   92.4599991       9.07810804E-17
   92.5749969       8.47733073E-17
   92.6900024       7.71924815E-17
   92.8050003       6.83142991E-17
   92.9199982       5.84499784E-17
   93.0350037       4.79369429E-17
   93.1500015       3.71287595E-17
   93.2649994       2.63845899E-17
   93.3799973       1.60584708E-17
   93.4950027       6.48871823E-18
   93.6100006      -2.01226325E-18
   93.7249985      -9.16744834E-18
   93.8399963      -1.47437433E-17
   93.9550018      -1.85593472E-17
   94.0699997      -2.04897535E-17
   94.1849976      -2.04722040E-17
   94.3000031      -1.85085583E-17
   94.4150009      -1.46663937E-17
   94.5299988      -9.07839987E-18
   94.6449966      -1.94006093E-18
   94.7600021       6.49435877E-18
   94.8750000       1.59173604E-17
   94.9899979       2.59752315E-17
   95.1050034       3.62762837E-17
   95.2200012       4.64001340E-17
   95.3349991       5.59078803E-17
   95.4499969       6.43528319E-17
   95.5650024       7.12916000E-17
   95.6800003       7.62952288E-17
   95.7949982       7.89602790E-17
   95.9100037       7.89193633E-17
   96.0250015       7.58513107E-17
   96.1399994       6.94902389E-17
   96.2549973       5.96339451E-17
   96.3700027       4.61509806E-17
   96.4850006       2.89867909E-17
   96.5999985       8.16843833E-18
   96.7149963      -1.61918405E-17
   96.8300018      -4.38943061E-17
   96.9449997      -7.46505886E-17
   97.0599976      -1.08083819E-16
   97.1750031      -1.43729805E-16
   97.2900009      -1.81039277E-16
   97.4049988      -2.19381269E-16
   97.5199966      -2.58047555E-16
   97.6350021      -2.96258191E-16
   97.7500000      -3.33168101E-16
   97.8649979      -3.67875276E-16
   97.9800034      -3.99430139E-16
   98.0950012      -4.26846584E-16
   98.2099991      -4.49115186E-16
   98.3249969      -4.65217759E-16
   98.4400024      -4.74145062E-16