   0.00000000       0.00000000    
  0.115000002       0.00000000    
  0.230000004       0.00000000    
  0.344999999       0.00000000    
  0.460000008       0.00000000    
  0.574999988       0.00000000    
  0.689999998       0.00000000    
  0.805000007       0.00000000    
  0.920000017       0.00000000    
   1.03499997       0.00000000    
   1.14999998       0.00000000    
   1.26499999       0.00000000    
   1.38000000       0.00000000    
   1.49500000       0.00000000    
   1.61000001       0.00000000    
   1.72500002       0.00000000    
   1.84000003       0.00000000    
   1.95500004       0.00000000    
   2.06999993       0.00000000    
   2.18499994       0.00000000    
   2.29999995       0.00000000    
   2.41499996       0.00000000    
   2.52999997       0.00000000    
   2.64499998       0.00000000    
   2.75999999       0.00000000    
   2.87500000       0.00000000    
   2.99000001       0.00000000    
   3.10500002       0.00000000    
   3.22000003       0.00000000    
   3.33500004       0.00000000    
   3.45000005       0.00000000    
   3.56500006       0.00000000    
   3.68000007       0.00000000    
   3.79500008       0.00000000    
   3.91000009       0.00000000    
   4.02500010       0.00000000    
   4.13999987       0.00000000    
   4.25500011       0.00000000    
   4.36999989       0.00000000    
   4.48500013       0.00000000    
   4.59999990       0.00000000    
   4.71500015       0.00000000    
   4.82999992       0.00000000    
   4.94500017       0.00000000    
   5.05999994       0.00000000    
   5.17500019       0.00000000    
   5.28999996       0.00000000    
   5.40500021       0.00000000    
   5.51999998       0.00000000    
   5.63500023       0.00000000    
   5.75000000       0.00000000    
   5.86499977       0.00000000    
   5.98000002       0.00000000    
   6.09499979       0.00000000    
   6.21000004       0.00000000    
   6.32499981       0.00000000    
   6.44000006       0.00000000    
   6.55499983       0.00000000    
   6.67000008       0.00000000    
   6.78499985       0.00000000    
   6.90000010       0.00000000    
   7.01499987       0.00000000    
   7.13000011       0.00000000    
   7.24499989       0.00000000    
   7.36000013       0.00000000    
   7.47499990       0.00000000    
   7.59000015       0.00000000    
   7.70499992       0.00000000    
   7.82000017       0.00000000    
   7.93499994       0.00000000    
   8.05000019       0.00000000    
   8.16499996       0.00000000    
   8.27999973       0.00000000    
   8.39500046       0.00000000    
   8.51000023       0.00000000    
   8.62500000       0.00000000    
   8.73999977       0.00000000    
   8.85499954       0.00000000    
   8.97000027       0.00000000    
   9.08500004       0.00000000    
   9.19999981       0.00000000    
   9.31499958       0.00000000    
   9.43000031       0.00000000    
   9.54500008       0.00000000    
   9.65999985       0.00000000    
   9.77499962       0.00000000    
   9.89000034       0.00000000    
   10.0050001       7.31253591E-41
   10.1199999       1.43637296E-40
   10.2349997       2.14150635E-40
   10.3500004       2.84663974E-40
   10.4650002       3.55177313E-40
   10.5799999       4.25690651E-40
   10.6949997       4.96202589E-40
   10.8100004       5.66715928E-40
   10.9250002       6.37229266E-40
   11.0400000       7.07742605E-40
   11.1549997       6.57929247E-40
   11.2700005       5.36770179E-40
   11.3850002       4.18223132E-40
   11.5000000       2.99676084E-40
   11.6149998       1.81129037E-40
   11.7299995       4.35131199E-40
   11.8450003       8.59669983E-40
   11.9600000       1.02112759E-39
   12.0749998       1.15519262E-39
   12.1899996       1.17522418E-39
   12.3050003       8.69973731E-40
   12.4200001       9.91138404E-42
   12.5349998      -1.32487305E-39
   12.6499996      -3.02528007E-39
   12.7650003      -4.59246565E-39
   12.8800001      -5.51204534E-39
   12.9949999      -4.57569211E-39
   13.1099997      -2.61180033E-39
   13.2250004      -1.98900444E-39
   13.3400002      -1.91911328E-39
   13.4549999      -1.61161094E-39
   13.5699997      -7.22862615E-40
   13.6850004       7.74399570E-41
   13.8000002       3.13218541E-38
   13.9150000       6.39400494E-38
   14.0299997       9.88883098E-38
   14.1450005       1.02434738E-37
   14.2600002       1.02585933E-37
   14.3750000       1.03402453E-37
   14.4899998       1.08367287E-37
   14.6049995       5.95423881E-38
   14.7200003       3.79722036E-39
   14.8350000      -5.83315093E-38
   14.9499998      -1.07612704E-37
   15.0649996      -1.44867648E-37
   15.1800003      -1.62126253E-37
   15.2950001      -1.77858059E-37
   15.4099998      -2.97813882E-37
   15.5249996      -4.31308995E-37
   15.6400003      -5.37390786E-37
   15.7550001      -6.09172872E-37
   15.8699999      -7.48251139E-37
   15.9849997      -9.29033977E-37
   16.1000004      -1.19632917E-36
   16.2150002      -1.45545872E-36
   16.3299999      -1.68696784E-36
   16.4449997      -1.80490112E-36
   16.5599995      -1.99637096E-36
   16.6749992      -2.17638126E-36
   16.7900009      -2.70231077E-36
   16.9050007      -3.58446928E-36
   17.0200005      -5.02275736E-36
   17.1350002      -6.49453024E-36
   17.2500000      -8.03136713E-36
   17.3649998      -9.03496911E-36
   17.4799995      -9.89320913E-36
   17.5949993      -1.00981558E-35
   17.7099991      -9.67388157E-36
   17.8250008      -8.87640723E-36
   17.9400005      -6.57035838E-36
   18.0550003      -2.87646675E-36
   18.1700001       2.38620959E-36
   18.2849998       9.53840556E-36
   18.3999996       1.94073629E-35
   18.5149994       3.19736759E-35
   18.6299992       4.83954812E-35
   18.7450008       6.95213303E-35
   18.8600006       9.31618992E-35
   18.9750004       1.19142919E-34
   19.0900002       1.46829151E-34
   19.2049999       1.73778151E-34
   19.3199997       1.95488591E-34
   19.4349995       2.09638030E-34
   19.5499992       2.13290351E-34
   19.6650009       2.01804026E-34
   19.7800007       1.73194514E-34
   19.8950005       1.22644618E-34
   20.0100002       4.76510828E-35
   20.1250000      -5.19400387E-35
   20.2399998      -1.77392888E-34
   20.3549995      -3.24260851E-34
   20.4699993      -4.88521264E-34
   20.5849991      -6.62534514E-34
   20.7000008      -8.37045191E-34
   20.8150005      -1.00201260E-33
   20.9300003      -1.14486244E-33
   21.0450001      -1.25271753E-33
   21.1599998      -1.30979522E-33
   21.2749996      -1.30249017E-33
   21.3899994      -1.21791188E-33
   21.5049992      -1.04487838E-33
   21.6200008      -7.77852989E-34
   21.7350006      -4.14681668E-34
   21.8500004       3.95035380E-35
   21.9650002       5.71493073E-34
   22.0799999       1.16281499E-33
   22.1949997       1.78788154E-33
   22.3099995       2.41559424E-33
   22.4249992       3.01286273E-33
   22.5400009       3.54437224E-33
   22.6550007       3.97866046E-33
   22.7700005       4.28795727E-33
   22.8850002       4.45301101E-33
   23.0000000       4.46196203E-33
   23.1149998       4.31035117E-33
   23.2299995       4.00345752E-33
   23.3449993       3.55276417E-33
   23.4599991       2.97066414E-33
   23.5750008       2.26731022E-33
   23.6900005       1.44375989E-33
   23.8050003       4.83749170E-34
   23.9200001      -6.57709798E-34
   24.0349998      -2.05734599E-33
   24.1499996      -3.83372936E-33
   24.2649994      -6.14933348E-33
   24.3799992      -9.20371596E-33
   24.4950008      -1.32308825E-32
   24.6100006      -1.84827605E-32
   24.7250004      -2.52046736E-32
   24.8400002      -3.36018704E-32
   24.9549999      -4.38019758E-32
   25.0699997      -5.58058361E-32
   25.1849995      -6.94397721E-32
   25.2999992      -8.43043742E-32
   25.4150009      -9.97283412E-32
   25.5300007      -1.14726521E-31
   25.6450005      -1.27979067E-31
   25.7600002      -1.37824973E-31
   25.8750000      -1.42282882E-31
   25.9899998      -1.39107179E-31
   26.1049995      -1.25866493E-31
   26.2199993      -1.00065426E-31
   26.3349991      -5.92896546E-32
   26.4500008      -1.38385541E-33
   26.5650005       7.53528907E-32
   26.6800003       1.71973554E-31
   26.7950001       2.88679619E-31
   26.9099998       4.24656691E-31
   27.0249996       5.77944070E-31
   27.1399994       7.45364511E-31
   27.2549992       9.22522042E-31
   27.3700008       1.10389320E-30
   27.4850006       1.28299669E-30
   27.6000004       1.45264752E-30
   27.7150002       1.60528461E-30
   27.8299999       1.73334429E-30
   27.9449997       1.82963815E-30
   28.0599995       1.88770381E-30
   28.1749992       1.90205725E-30
   28.2900009       1.86830307E-30
   28.4050007       1.78304193E-30
   28.5200005       1.64351338E-30
   28.6350002       1.44694741E-30
   28.7500000       1.18960555E-30
   28.8649998       8.65522227E-31
   28.9799995       4.64999751E-31
   29.0949993      -2.70544433E-32
   29.2099991      -6.32790285E-31
   29.3250008      -1.38290723E-30
   29.4400005      -2.31771469E-30
   29.5550003      -3.48749614E-30
   29.6700001      -4.95188186E-30
   29.7849998      -6.77790494E-30
   29.8999996      -9.03646029E-30
   30.0149994      -1.17969378E-29
   30.1299992      -1.51198561E-29
   30.2450008      -1.90474637E-29
   30.3600006      -2.35924417E-29
   30.4750004      -2.87249743E-29
   30.5900002      -3.43587647E-29
   30.7049999      -4.03366798E-29
   30.8199997      -4.64170783E-29
   30.9349995      -5.22619748E-29
   31.0499992      -5.74284564E-29
   31.1650009      -6.13648766E-29
   31.2800007      -6.34134161E-29
   31.3950005      -6.28204885E-29
   31.5100002      -5.87563971E-29
   31.6250000      -5.03453044E-29
   31.7399998      -3.67060340E-29
   31.8549995      -1.70037722E-29
   31.9699993       9.48804271E-30
   32.0849991       4.33172369E-29
   32.2000008       8.47763607E-29
   32.3149986       1.33823375E-28
   32.4300003       1.90003967E-28
   32.5449982       2.52380649E-28
   32.6599998       3.19474294E-28
   32.7750015       3.89224062E-28
   32.8899994       4.58972024E-28
   33.0050011       5.25478237E-28
   33.1199989       5.84970213E-28
   33.2350006       6.33231755E-28
   33.3499985       6.65731148E-28
   33.4650002       6.77789107E-28
   33.5800018       6.64782339E-28
   33.6949997       6.22377695E-28
   33.8100014       5.46785811E-28
   33.9249992       4.35024048E-28
   34.0400009       2.85172760E-28
   34.1549988       9.66090335E-29
   34.2700005      -1.29800143E-28
   34.3849983      -3.91562550E-28
   34.5000000      -6.84499480E-28
   34.6150017      -1.00277260E-27
   34.7299995      -1.33900799E-27
   34.8450012      -1.68452098E-27
   34.9599991      -2.02963858E-27
   35.0750008      -2.36410770E-27
   35.1899986      -2.67757091E-27
   35.3050003      -2.96007864E-27
   35.4199982      -3.20260290E-27
   35.5349998      -3.39750836E-27
   35.6500015      -3.53893364E-27
   35.7649994      -3.62302937E-27
   35.8800011      -3.64801060E-27
   35.9949989      -3.61397596E-27
   36.1100006      -3.52246270E-27
   36.2249985      -3.37572841E-27
   36.3400002      -3.17575140E-27
   36.4550018      -2.92298619E-27
   36.5699997      -2.61492926E-27
   36.6850014      -2.24457139E-27
   36.7999992      -1.79886113E-27
   36.9150009      -1.25730928E-27
   37.0299988      -5.90902703E-28
   37.1450005       2.38495103E-28
   37.2599983       1.27807051E-27
   37.3750000       2.58313659E-27
   37.4900017       4.21519659E-27
   37.6049995       6.23886863E-27
   37.7200012       8.71759863E-27
   37.8349991       1.17081464E-26
   37.9500008       1.52539198E-26
   38.0649986       1.93773235E-26
   38.1800003       2.40713895E-26
   38.2949982       2.92910402E-26
   38.4099998       3.49444982E-26
   38.5250015       4.08853542E-26
   38.6399994       4.69060115E-26
   38.7550011       5.27331267E-26
   38.8699989       5.80258102E-26
   38.9850006       6.23772717E-26
   39.0999985       6.53205487E-26
   39.2150002       6.63388326E-26
   39.3300018       6.48807341E-26
   39.4449997       6.03807079E-26
   39.5600014       5.22843819E-26
   39.6749992       4.00785621E-26
   39.7900009       2.33250331E-26
   39.9049988       1.69719495E-27
   40.0200005      -2.49819430E-26
   40.1349983      -5.67019845E-26
   40.2500000      -9.32296464E-26
   40.3650017      -1.34077659E-25
   40.4799995      -1.78480162E-25
   40.5950012      -2.25377117E-25
   40.7099991      -2.73409649E-25
   40.8250008      -3.20928190E-25
   40.9399986      -3.66015067E-25
   41.0550003      -4.06522137E-25
   41.1699982      -4.40124481E-25
   41.2849998      -4.64389004E-25
   41.4000015      -4.76856852E-25
   41.5149994      -4.75138565E-25
   41.6300011      -4.57017346E-25
   41.7449989      -4.20558463E-25
   41.8600006      -3.64219323E-25
   41.9749985      -2.86956215E-25
   42.0900002      -1.88321399E-25
   42.2050018      -6.85468419E-26
   42.3199997       7.13918441E-26
   42.4350014       2.29735006E-25
   42.5499992       4.03926218E-25
   42.6650009       5.90629330E-25
   42.7799988       7.85777741E-25
   42.8950005       9.84654506E-25
   43.0099983       1.18200246E-24
   43.1250000       1.37215994E-24
   43.2400017       1.54921800E-24
   43.3549995       1.70719104E-24
   43.4700012       1.84019536E-24
   43.5849991       1.94262283E-24
   43.7000008       2.00930544E-24
   43.8149986       2.03565833E-24
   43.9300003       2.01779457E-24
   44.0449982       1.95260330E-24
   44.1599998       1.83778953E-24
   44.2750015       1.67186940E-24
   44.3899994       1.45412446E-24
   44.5050011       1.18451744E-24
   44.6199989       8.63578260E-25
   44.7350006       4.92268877E-25
   44.8499985       7.18432759E-26
   44.9650002      -3.96282846E-25
   45.0800018      -9.10633123E-25
   45.1949997      -1.46972478E-24
   45.3100014      -2.07205637E-24
   45.4249992      -2.71601418E-24
   45.5400009      -3.39967969E-24
   45.6549988      -4.12053724E-24
   45.7700005      -4.87507007E-24
   45.8849983      -5.65825867E-24
   46.0000000      -6.46298712E-24
   46.1150017      -7.27938597E-24
   46.2299995      -8.09413887E-24
   46.3450012      -8.88979581E-24
   46.4599991      -9.64414169E-24
   46.5750008      -1.03296721E-23
   46.6899986      -1.09132430E-23
   46.8050003      -1.13559470E-23
   46.9199982      -1.16132821E-23
   47.0349998      -1.16356700E-23
   47.1500015      -1.13693679E-23
   47.2649994      -1.07578074E-23
   47.3800011      -9.74338986E-24
   47.4949989      -8.26972038E-24
   47.6100006      -6.28428054E-24
   47.7249985      -3.74147222E-24
   47.8400002      -6.05971886E-25
   47.9550018       3.14370320E-24
   48.0699997       7.51154616E-24
   48.1850014       1.24804769E-23
   48.2999992       1.80089734E-23
   48.4150009       2.40281147E-23
   48.5299988       3.04392172E-23
   48.6450005       3.71122547E-23
   48.7599983       4.38852031E-23
   48.8750000       5.05645672E-23
   48.9900017       5.69271059E-23
   49.1049995       6.27229680E-23
   49.2200012       6.76802393E-23
   49.3349991       7.15109037E-23
   49.4500008       7.39182737E-23
   49.5649986       7.46056618E-23
   49.6800003       7.32862573E-23
   49.7949982       6.96938604E-23
   49.9099998       6.35943753E-23
   50.0250015       5.47975412E-23
   50.1399994       4.31687249E-23
   50.2550011       2.86401789E-23
   50.3699989       1.12215582E-23
   50.4850006      -8.99092068E-24
   50.5999985      -3.18069727E-23
   50.7150002      -5.69368562E-23
   50.8300018      -8.39884555E-23
   50.9449997      -1.12467054E-22
   51.0600014      -1.41778234E-22
   51.1749992      -1.71233821E-22
   51.2900009      -2.00061197E-22
   51.4049988      -2.27415775E-22
   51.5200005      -2.52396690E-22
   51.6349983      -2.74065273E-22
   51.7500000      -2.91466459E-22
   51.8650017      -3.03652025E-22
   51.9799995      -3.09706009E-22
   52.0950012      -3.08771291E-22
   52.2099991      -3.00076630E-22
   52.3250008      -2.82964154E-22
   52.4399986      -2.56915866E-22
   52.5550003      -2.21579189E-22
   52.6699982      -1.76790393E-22
   52.7849998      -1.22595800E-22
   52.9000015      -5.92693854E-23
   53.0149994       1.26729021E-23
   53.1300011       9.24633333E-23
   53.2449989       1.79077093E-22
   53.3600006       2.71232114E-22
   53.4749985       3.67394284E-22
   53.5900002       4.65788412E-22
   53.7050018       5.64414705E-22
   53.8199997       6.61071497E-22
   53.9350014       7.53383722E-22
   54.0499992       8.38837427E-22
   54.1650009       9.14819752E-22
   54.2799988       9.78664928E-22
   54.3950005       1.02770527E-21
   54.5099983       1.05932635E-21
   54.6250000       1.07102734E-21
   54.7400017       1.06048462E-21
   54.8549995       1.02561722E-21
   54.9700012       9.64655466E-22
   55.0849991       8.76209340E-22
   55.2000008       7.59335848E-22
   55.3149986       6.13605396E-22
   55.4300003       4.39163334E-22
   55.5449982       2.36786383E-22
   55.6599998       7.93185598E-24
   55.7750015      -2.45222827E-22
   55.8899994      -5.19752102E-22
   56.0050011      -8.11967487E-22
   56.1199989      -1.11741832E-21
   56.2350006      -1.43091028E-21
   56.3499985      -1.74654218E-21
   56.4650002      -2.05776384E-21
   56.5800018      -2.35745485E-21
   56.6949997      -2.63802599E-21
   56.8100014      -2.89154110E-21
   56.9249992      -3.10986185E-21
   57.0400009      -3.28481136E-21
   57.1549988      -3.40835611E-21
   57.2700005      -3.47280269E-21
   57.3849983      -3.47100616E-21
   57.5000000      -3.39658373E-21
   57.6150017      -3.24413431E-21
   57.7299995      -3.00945028E-21
   57.8450012      -2.68972195E-21
   57.9599991      -2.28372511E-21
   58.0750008      -1.79198582E-21
   58.1899986      -1.21691778E-21
   58.3050003      -5.62922206E-22
   58.4199982       1.63551262E-22
   58.5349998       9.53988047E-22
   58.6500015       1.79784313E-21
   58.7649994       2.68262306E-21
   58.8800011       3.59402383E-21
   58.9949989       4.51611372E-21
   59.1100006       5.43157082E-21
   59.2249985       6.32195886E-21
   59.3400002       7.16804265E-21
   59.4550018       7.95013707E-21
   59.5699997       8.64847138E-21
   59.6850014       9.24356967E-21
   59.7999992       9.71663620E-21
   59.9150009       1.00499213E-20
   60.0299988       1.02270826E-20
   60.1450005       1.02335045E-20
   60.2599983       1.00565937E-20
   60.3750000       9.68602729E-21
   60.4900017       9.11395354E-21
   60.6049995       8.33515007E-21
   60.7200012       7.34713695E-21
   60.8349991       6.15024255E-21
   60.9500008       4.74764513E-21
   61.0649986       3.14538195E-21
   61.1800003       1.35234932E-21
   61.2949982      -6.19702419E-22
   61.4099998      -2.75615550E-21
   61.5250015      -5.03949570E-21
   61.6399994      -7.44924044E-21
   61.7550011      -9.96182982E-21
   61.8699989      -1.25504681E-20
   61.9850006      -1.51849180E-20
   62.0999985      -1.78312610E-20
   62.2150002      -2.04516254E-20
   62.3300018      -2.30039090E-20
   62.4449997      -2.54415214E-20
   62.5600014      -2.77131904E-20
   62.6749992      -2.97628438E-20
   62.7900009      -3.15296434E-20
   62.9049988      -3.29482000E-20
   63.0200005      -3.39490304E-20
   63.1349983      -3.44592845E-20
   63.2500000      -3.44038117E-20
   63.3650017      -3.37065792E-20
   63.4799995      -3.22924881E-20
   63.5950012      -3.00895930E-20
   63.7099991      -2.70317099E-20
   63.8250008      -2.30614158E-20
   63.9399986      -1.81333661E-20
   64.0550003      -1.22178745E-20
   64.1699982      -5.30467817E-21
   64.2850037       2.59325383E-21
   64.4000015       1.14359965E-20
   64.5149994       2.11531731E-20
   64.6299973       3.16408992E-20
   64.7450027       4.27593052E-20
   64.8600006       5.43309028E-20
   64.9749985       6.61399013E-20
   65.0899963       7.79327180E-20
   65.2050018       8.94198333E-20
   65.3199997       1.00279112E-19
   65.4349976       1.10160735E-19
   65.5500031       1.18693671E-19
   65.6650009       1.25493923E-19
   65.7799988       1.30174201E-19
   65.8949966       1.32355115E-19
   66.0100021       1.31677550E-19
   66.1250000       1.27816052E-19
   66.2399979       1.20492763E-19
   66.3550034       1.09491662E-19
   66.4700012       9.46724302E-20
   66.5849991       7.59836995E-20
   66.6999969       5.34748485E-20
   66.8150024       2.73060334E-20
   66.9300003      -2.24418846E-21
   67.0449982      -3.47741301E-20
   67.1600037      -6.97577179E-20
   67.2750015      -1.06546905E-19
   67.3899994      -1.44378211E-19
   67.5049973      -1.82383464E-19
   67.6200027      -2.19604924E-19
   67.7350006      -2.55014458E-19
   67.8499985      -2.87536873E-19
   67.9649963      -3.16076569E-19
   68.0800018      -3.39547328E-19
   68.1949997      -3.56904188E-19
   68.3099976      -3.67177047E-19
   68.4250031      -3.69504320E-19
   68.5400009      -3.63166436E-19
   68.6549988      -3.47617276E-19
   68.7699966      -3.22513197E-19
   68.8850021      -2.87737930E-19
   69.0000000      -2.43422840E-19
   69.1149979      -1.89961071E-19
   69.2300034      -1.28015350E-19
   69.3450012      -5.85183625E-20
   69.4599991       1.73346247E-20
   69.5749969       9.81007901E-20
   69.6900024       1.82113079E-19
   69.8050003       2.67510986E-19
   69.9199982       3.52278568E-19
   70.0350037       4.34289002E-19
   70.1500015       5.11354576E-19
   70.2649994       5.81281375E-19
   70.3799973       6.41926587E-19
   70.4950027       6.91258139E-19
   70.6100006       7.27413738E-19
   70.7249985       7.48759134E-19
   70.8399963       7.53942817E-19
   70.9550018       7.41946009E-19
   71.0699997       7.12126924E-19
   71.1849976       6.64256638E-19
   71.3000031       5.98546702E-19
   71.4150009       5.15666100E-19
   71.5299988       4.16747732E-19
   71.6449966       3.03382965E-19
   71.7600021       1.77604350E-19
   71.8750000       4.18558334E-20
   71.9899979      -1.01048700E-19
   72.1050034      -2.47978330E-19
   72.2200012      -3.95549290E-19
   72.3349991      -5.40198312E-19
   72.4499969      -6.78264476E-19
   72.5650024      -8.06078046E-19
   72.6800003      -9.20053763E-19
   72.7949982      -1.01678695E-18
   72.9100037      -1.09315041E-18
   73.0250015      -1.14638889E-18
   73.1399994      -1.17420894E-18
   73.2549973      -1.17486262E-18
   73.3700027      -1.14722062E-18
   73.4850006      -1.09083389E-18
   73.5999985      -1.00598108E-18
   73.7149963      -8.93699582E-19
   73.8300018      -7.55798390E-19
   73.9449997      -5.94851428E-19
   74.0599976      -4.14170910E-19
   74.1750031      -2.17758863E-19
   74.2900009      -1.02382956E-20
   74.4049988       2.03236519E-19
   74.5199966       4.17089487E-19
   74.6350021       6.25450131E-19
   74.7500000       8.22296576E-19
   74.8649979       1.00161243E-18
   74.9800034       1.15755314E-18
   75.0950012       1.28461904E-18
   75.2099991       1.37783102E-18
   75.3249969       1.43290305E-18
   75.4400024       1.44640926E-18
   75.5550003       1.41593779E-18
   75.6699982       1.34022925E-18
   75.7850037       1.21929224E-18
   75.9000015       1.05449181E-18
   76.0149994       8.48607537E-19
   76.1299973       6.05854688E-19
   76.2450027       3.31866464E-19
   76.3600006       3.36330442E-20
   76.4749985      -2.80603471E-19
   76.5899963      -6.01499892E-19
   76.7050018      -9.18808753E-19
   76.8199997      -1.22161859E-18
   76.9349976      -1.49863600E-18
   77.0500031      -1.73850224E-18
   77.1650009      -1.93014241E-18
   77.2799988      -2.06313341E-18
   77.3949966      -2.12808736E-18
   77.5100021      -2.11703457E-18
   77.6250000      -2.02379642E-18
   77.7399979      -1.84433504E-18
   77.8550034      -1.57706482E-18
   77.9700012      -1.22311340E-18
   78.0849991      -7.86518482E-19
   78.1999969      -2.74347452E-19
   78.3150024       3.03270520E-19
   78.4300003       9.33208210E-19
   78.5449982       1.59950778E-18
   78.6600037       2.28365252E-18
   78.7750015       2.96494453E-18
   78.8899994       3.62098437E-18
   79.0049973       4.22824041E-18
   79.1200027       4.76270372E-18
   79.2350006       5.20060487E-18
   79.3499985       5.51917528E-18
   79.4649963       5.69743643E-18
   79.5800018       5.71698270E-18
   79.6949997       5.56274123E-18
   79.8099976       5.22367617E-18
   79.9250031       4.69341204E-18
   80.0400009       3.97075273E-18
   80.1549988       3.06007506E-18
   80.2699966       1.97157051E-18
   80.3850021       7.21331169E-19
   80.5000000      -6.68740784E-19
   80.6149979      -2.17120125E-18
   80.7300034      -3.75350781E-18
   80.8450012      -5.37863357E-18
   80.9599991      -7.00584508E-18
   81.0749969      -8.59161648E-18
   81.1900024      -1.00906663E-17
   81.3050003      -1.14570917E-17
   81.4199982      -1.26455699E-17
   81.5350037      -1.36125838E-17
   81.6500015      -1.43176659E-17
   81.7649994      -1.47246024E-17
   81.8799973      -1.48025757E-17
   81.9950027      -1.45272172E-17
   82.1100006      -1.38815349E-17
   82.2249985      -1.28567037E-17
   82.3399963      -1.14526696E-17
   82.4550018      -9.67858723E-18
   82.5699997      -7.55303580E-18
   82.6849976      -5.10404311E-18
   82.8000031      -2.36887157E-18
   82.9150009       6.06400575E-19
   83.0299988       3.76751983E-18
   83.1449966       7.05291413E-18
   83.2600021       1.03947461E-17
   83.3750000       1.37201528E-17
   83.4899979       1.69526597E-17
   83.6050034       2.00137391E-17
   83.7200012       2.28244856E-17
   83.8349991       2.53074022E-17
   83.9499969       2.73882214E-17
   84.0650024       2.89977792E-17
   84.1800003       3.00738452E-17
   84.2949982       3.05629274E-17
   84.4100037       3.04219427E-17
   84.5250015       2.96197826E-17
   84.6399994       2.81386595E-17
   84.7549973       2.59752232E-17
   84.8700027       2.31414315E-17
   84.9850006       1.96650676E-17
   85.0999985       1.55899475E-17
   85.2149963       1.09757437E-17
   85.3300018       5.89741520E-18
   85.4449997       4.44254460E-19
   85.5599976      -5.28146797E-18
   85.6750031      -1.11662467E-17
   85.7900009      -1.70874405E-17
   85.9049988      -2.29157005E-17
   86.0199966      -2.85176770E-17
   86.1350021      -3.37589613E-17
   86.2500000      -3.85072064E-17
   86.3649979      -4.26353041E-17
   86.4800034      -4.60246403E-17
   86.5950012      -4.85682571E-17
   86.7099991      -5.01739007E-17
   86.8249969      -5.07668668E-17
   86.9400024      -5.02925316E-17
   87.0550003      -4.87185459E-17
   87.1699982      -4.60366278E-17
   87.2850037      -4.22638306E-17
   87.4000015      -3.74433164E-17
   87.5149994      -3.16445686E-17
   87.6299973      -2.49629642E-17
   87.7450027      -1.75187887E-17
   87.8600006      -9.45558016E-18
   87.9749985      -9.37877024E-19
   88.0899963       7.85164139E-18
   88.2050018       1.67155914E-17
   88.3199997       2.54458624E-17
   88.4349976       3.38280706E-17
   88.5500031       4.16464263E-17
   88.6650009       4.86889328E-17
   88.7799988       5.47528119E-17
   88.8949966       5.96500785E-17
   89.0100021       6.32131159E-17
   89.1250000       6.53000397E-17
   89.2399979       6.57999281E-17
   89.3550034       6.46374349E-17
   89.4700012       6.17769451E-17
   89.5849991       5.72258900E-17
   89.6999969       5.10372125E-17
   89.8150024       4.33106806E-17
   89.9300003       3.41930955E-17
   90.0449982       2.38771855E-17
   90.1600037       1.25991246E-17
   90.2750015       6.34644916E-19
   90.3899994      -1.17062129E-17
   90.5049973      -2.40857011E-17
   90.6200027      -3.61462013E-17
   90.7350006      -4.75191571E-17
   90.8499985      -5.78348802E-17
   90.9649963      -6.67330209E-17
   91.0800018      -7.38733565E-17
   91.1949997      -7.89466934E-17
   91.3099976      -8.16854354E-17
   91.4250031      -8.18735562E-17
   91.5400009      -7.93555853E-17
   91.6549988      -7.40443380E-17
   91.7699966      -6.59270492E-17
   91.8850021      -5.50696816E-17
   92.0000000      -4.16192418E-17
   92.1149979      -2.58038794E-17
   92.2300034      -7.93081002E-18
   92.3450012       1.16180718E-17
   92.4599991       3.23926376E-17
   92.5749969       5.38831175E-17
   92.6900024       7.55304838E-17
   92.8050003       9.67384021E-17
   92.9199982       1.16886537E-16
   93.0350037       1.35344814E-16
   93.1500015       1.51488296E-16
   93.2649994       1.64712452E-16
   93.3799973       1.74448302E-16
   93.4950027       1.80177156E-16
   93.6100006       1.81444860E-16
   93.7249985       1.77874987E-16
   93.8399963       1.69180815E-16
   93.9550018       1.55176039E-16
   94.0699997       1.35783881E-16
   94.1849976       1.11044418E-16
   94.3000031       8.11202726E-17
   94.4150009       4.63000981E-17
   94.5299988       7.00026988E-18
   94.6449966      -3.62356989E-17
   94.7600021      -8.27400179E-17
   94.8750000      -1.31725667E-16
   94.9899979      -1.82293984E-16
   95.1050034      -2.33444742E-16
   95.2200012      -2.84088736E-16
   95.3349991      -3.33062990E-16
   95.4499969      -3.79148676E-16
   95.5650024      -4.21091418E-16
   95.6800003      -4.57624320E-16
   95.7949982      -4.87492819E-16
   95.9100037      -5.09482165E-16
   96.0250015      -5.22445846E-16
   96.1399994      -5.25335710E-16
   96.2549973      -5.17232252E-16
   96.3700027      -4.97375047E-16
   96.4850006      -4.65192400E-16
   96.5999985      -4.20329221E-16
   96.7149963      -3.62672456E-16
   96.8300018      -2.92373248E-16
   96.9449997      -2.09864946E-16
   97.0599976      -1.15875973E-16
   97.1750031      -1.14370814E-17
   97.2900009       1.02117710E-16
   97.4049988       2.23157183E-16
   97.5199966       3.49766056E-16
   97.6350021       4.79765655E-16
   97.7500000       6.10741989E-16
   97.8649979       7.40080850E-16
   97.9800034       8.65010004E-16
   98.0950012       9.82647581E-16
   98.2099991       1.09005570E-15
   98.3249969       1.18429934E-15
   98.4400024       1.26250843E-15